<?xml version="1.0"?>
<VTKFile type="UnstructuredGrid"  version="0.1"  >
<UnstructuredGrid>
<Piece  NumberOfPoints="612" NumberOfCells="1848">
<Points>
<DataArray  type="Float64"  NumberOfComponents="3"  format="ascii">0.3248343438004405 2.37091966445388 -1.756312175768699e-15  -1.151499581440325 -2.826641940736411 8.528147807387478e-18  -0.3369310252208298 2.328195220525041 -1.76375100589402e-15  -0.9485027321862466 2.04622628667501 -1.769375573483466e-15  -1.431096182524686 1.578926864896768 -1.312171751572676e-15  -1.751062356115655 0.987053551344502 -1.323574605719824e-15  -1.871822536456986 0.3243307441083882 -8.642855285327186e-16  -1.848857633672792 -0.341002967590493 -8.838050487082469e-16  -1.604324435189268 -0.9450994581580785 -4.432039957890143e-16  -1.174845526929096 -1.435787950976649 -4.471320392333871e-16  -0.6110703511146627 -1.76323317259702 1.055199607136947e-17  0.03472633084704981 -1.867940991590992 4.079618814147658e-18  0.6777651573017668 -1.752426216177148 1.189625000559686e-17  1.246891695446648 -1.428442509942507 -4.351487918811428e-16  1.654047556968295 -0.9096496269802785 -4.339278983283455e-16  1.868198067294654 -0.2896794788675656 -8.827876200857835e-16  1.89621805616649 0.3689647310838826 -8.741212271304951e-16  1.743939875048783 1.008835990288225 -1.321850819546484e-15  1.392105967491899 1.573447174362384 -1.295763370859427e-15  0.9091421297654609 2.042502649773599 -1.756216394079088e-15  -0.4355238289550528 -3.043187819175841 2.639709945558328e-17  0.3122530903198483 -3.050665551461269 3.948668355666368e-17  1.034819727082874 -2.869450067836986 4.175632560263394e-17  1.692293515135936 -2.523540285367863 2.349906031780372e-17  2.256906095302436 -2.040858948303078 -2.285457110139257e-18  2.709247991202148 -1.452257921709816 -4.598168213105947e-16  3.036073129472408 -0.7825968693572788 -3.647193737097421e-16  3.191324382983354 -0.04626160206855966 -8.818913128456234e-16  3.121994139140015 0.7045114050532719 -8.339743617579358e-16  2.850298809803886 1.405034885093471 -1.329165117804648e-15  2.414852419685102 2.010677587237566 -1.309065566892772e-15  1.859666028891197 2.506388300762658 -1.748835715893429e-15  1.231860987838723 2.889967867403561 -1.750553289221041e-15  0.5442602528721375 3.184715195132468 -1.74818748107443e-15  -0.1983893905319028 3.288461144136798 -1.765172579399296e-15  -0.9384634553432262 3.149377471466696 -1.748920989055504e-15  -1.603783318592148 2.801195841651326 -1.762463869052648e-15  -2.147762041719135 2.288888608169435 -1.757938450673799e-15  -2.544088685396865 1.658250330957944 -1.309229228070457e-15  -2.785290185651775 0.9565940950678318 -1.302727481472713e-15  -2.892992434121191 0.2259792631877726 -8.376687514008606e-16  -2.837550592181333 -0.51062766879146 -8.477012096920142e-16  -2.623059526330677 -1.219831600015079 -4.406556342192492e-16  -2.264142604009454 -1.863588421081517 -4.471204767041627e-16  -1.769732378493948 -2.413614718062866 3.420419740223806e-17  1.178736199067527 1.839076854465632 -0.8402127814725765  0.768893280531204 1.875999691071917 -1.561337915416121  0.6264663411560103 2.178099128822097 -0.7183096588663529  1.731776119687975 -0.8868160600416797 -3.164397833289651  1.543624022948394 -1.358475345853367 -2.84185196102543  1.447457784511491 -1.305019889776366 -3.415129656608324  1.861009274079096 1.098044922429737 -1.26891428886077  2.12179419660776 0.5211747879970916 -0.871955455187214  2.059217425175572 0.5606624693980621 -1.616609262500571  1.790061873218671 -1.052502029711275 -2.357141886204569  -0.829059764968438 -1.895861822384613 -3.106293492078352  -1.066548549365282 -1.637371878765815 -3.623667044001126  -0.4762689602435895 -1.925853673916025 -3.642901268344618  1.091440587937167 -1.56347945111417 -3.7807268231168  0.7409896603699105 -1.915136676964738 -3.403981135416562  0.6192010822933436 -1.740577246107568 -4.081953875223163  1.134651187551935 -1.751229020500784 -3.030973429298108  2.182809587847372 0.09828070934223365 -1.238534827713475  2.110338751317355 -0.05434543937052609 -0.6462238888953404  2.102347287470333 -0.4321846872979136 -1.200792056755942  1.650647347249369 1.422767213688769 -0.7402187669128708  -1.683403134942002 1.085445031457615 -4.568871079071362  -1.953197732905489 0.8575717420735001 -3.92081134877652  -1.76315146864871 1.351009666138591 -3.766111790798908  -0.9375021378213843 -1.91193369381187 -2.411129893446957  -0.3262241681751008 -2.122081359313868 -1.992933964140831  -0.8288845125711601 -1.975380314555918 -1.490000583619594  -1.988590384073833 0.9366955612332231 -3.224640669990326  1.905067244196086 0.351108902401631 -5.627670785929038  1.903483171793493 0.7855595118322407 -5.201492285396058  1.850730667943278 0.1886501877465002 -4.942285688812738  1.621580944627671 -0.4677236758898662 -4.569503111683608  1.373521247688653 -1.091017545012381 -4.133333578674985  1.326518166689912 -0.8465362768501746 -4.858033780143817  -1.851075793164611 -0.6673725936224095 -0.3596859792931496  -2.03213942757843 -0.2233310121170181 -0.6901234162478062  -1.650671482934731 1.192286082548617 -0.7976549046225662  -1.237470811374423 1.716570401930283 -0.6979909106022323  -1.37286000394594 1.425204895244362 -1.315253560586971  -0.0465860548694931 -2.082701324757341 -1.313798415301943  -0.5919656189076888 -1.968252781289846 -0.8232405529292449  -1.119592460244044 -1.713053918825623 -0.683753020416658  -0.7638488853022797 2.025288745590601 -0.8008470628485983  -1.040282723758872 1.681727214583103 -1.342953353484963  1.660306863673772 -0.6763439742476194 -3.835428218932801  -1.214291293397634 -0.764352140073904 -4.681711057497576  -0.7540442840956469 -1.428157223550326 -4.377601929265901  -1.397168063745311 -1.168680046535167 -3.949161744933661  0.5884215097086136 1.711707687923625 -3.399620528592247  0.6843784056315254 1.680636133961766 -2.457053198596934  1.091600244212224 1.439135158008351 -2.892631805983727  1.918171170029003 0.8963841527489621 -6.035791804590901  1.203306405521174 1.479991830542352 -2.148968510696377  1.870917042778383 -0.9412504049985082 -1.107944012687061  1.551691782233861 -1.304750560175796 -0.7434372075702508  1.670709451314619 -1.279747391472202 -1.604675247082199  1.925334930456991 0.5015674923430264 -2.460917404425355  1.68456724393357 1.057666476297511 -2.110121023862426  -1.049309642002854 1.587474644443406 -5.459275588453236  -0.6921447986027698 1.657361817613204 -5.923030793023516  -0.9865501693054487 1.206188521879632 -5.964478194796885  1.660726057760001 0.9054244379636189 -3.060626735585659  0.1365422893945824 2.082595245153354 -1.323654362588755  1.262680507024128 1.403694136006633 -3.607546835399742  -1.621739186888976 -1.197208403451842 -0.5323751507350125  -1.508692757305016 -1.556290728713635 -1.22892489816198  -1.890107800216425 -0.9517282626260051 -0.9738980944770218  -1.801215052111807 -1.247236637561454 -1.708306253954665  0.182490421970875 1.834369596844178 -2.121508583434592  0.7239022963216691 -1.931125043136894 -1.228529198548012  1.061496175446024 -1.683130341491329 -0.5810849755178226  0.4401922667958817 -1.944895879084468 -0.6977492978456713  1.419066421903328 1.511995447044766 -1.459101176229093  -0.4128628977448403 1.430027084913622 -6.491390174385767  1.973611949565726 -0.7446592108159609 -1.729369702226479  -1.428297058764206 -0.0139289500369621 -5.041040391607854  -1.590529877251622 0.6558877475338939 -4.957110161308079  -1.220070077936633 0.5622072879483065 -5.673364802403113  1.244046645573145 -1.658196524420036 -1.379852891543998  -0.5189480945521755 1.834913398370777 -1.689258189842066  1.829535807186793 -0.2351390660305922 -3.536376377883922  1.915070455100464 -0.4519982599693779 -2.86266161702024  2.002315988903312 -0.06968254411847616 -2.606250123174017  1.99096349818235 -0.4925355581019746 -2.31695756979682  -1.93354093972218 0.5298953231743601 -0.702506296923763  -2.094790982257309 -0.5928686056889637 -1.478027893490178  -1.652471953449862 1.082132677893711 -1.640798936726323  -1.884070669159256 0.7330874832571621 -1.296537786707769  0.856048712678103 -1.983001932027509 -1.988782806012668  0.4551746469244543 -1.412951020746428 -4.793702106295013  -0.04413562857027017 -1.762625734263763 -4.213282463480294  0.188423046797039 -2.022321770903471 -3.539427651972241  1.396821031675752 -1.61426098322195 -2.289755298196172  -1.333176208477177 -1.706776459999641 -1.813427166330567  2.095091874693799 -0.08146825865341259 -1.91569236625862  1.298997104536278 1.604502155845216 -4.837215919705979  0.9344219682303969 1.730516584015983 -4.128465474314726  1.511107301964675 1.337836208431342 -4.253601334184134  -1.577748407505114 -1.44581879859312 -2.498112949476157  -0.1531840447173902 -1.979910945500384 -0.5724536813058325  -1.850741901425504 1.013681329993318 -2.491082867155941  -1.266728498196585 1.474675121522774 -2.097157383102726  -1.989418917635573 0.5864560376626887 -1.970602204806116  -1.978061567018417 -0.8783809306484353 -2.214930158993079  -1.364664025112498 1.108813812123808 -5.341094528041164  1.911791586049759 0.2071244394358862 -3.112782354599264  1.012249011540592 -1.288433423284524 -4.559496112975688  -1.906517497905625 -0.8691559190002924 -2.92743492058775  -2.102431592364122 -0.4744206950075598 -2.532117291076574  -0.2002099320992018 1.862051537261948 -2.885763145558734  -0.7516142482377218 1.887636540085893 -3.128665108977448  -0.4262125695206312 1.809584900004326 -2.49622181302152  -2.10454525014262 -0.2007552557749186 -2.984869884349733  -2.154932260824723 0.02537076000467388 -2.297798733825287  -2.12270344601575 0.411776434146962 -2.820902918208722  -0.1982654331116062 1.973477247447613 -3.622440068574572  -2.091202274124431 0.1372346215651525 -1.412877856646268  -2.132723621682515 -0.3781560126698711 -2.001208675698746  -1.768762025060803 -0.8285735720275742 -3.620790233694401  -1.582320754140387 -1.25749363111658 -3.276905329527172  1.900355532103989 -0.7559353637732923 -0.5364712518925538  -0.2894805328098985 2.168017259195514 -0.9056037659897064  
[...]
<PointData  Vectors="f_4373389-0"> 
<DataArray  type="Float64"  Name="f_4373389-0"  NumberOfComponents="3" format="ascii">1.1632806366330672e-01 3.3963290518379802e-01 0.0000000000000000e+00  -1.1617983468152719e-01 -2.3806130633377434e-01 0.0000000000000000e+00  -2.2217476150897870e-02 3.6478663737805828e-01 0.0000000000000000e+00  -1.5317881068068617e-01 3.5341724992384421e-01 0.0000000000000000e+00  -2.7800602451227779e-01 3.0443187689824430e-01 0.0000000000000000e+00  -3.7712554787132591e-01 2.1664143005666675e-01 0.0000000000000000e+00  -4.3770385512801352e-01 9.9672148850793924e-02 0.0000000000000000e+00  -4.4452223413557063e-01 -3.5778310636555177e-02 0.0000000000000000e+00  -4.0737807270442028e-01 -1.7891925092880098e-01 0.0000000000000000e+00  -3.3052127149215160e-01 -3.0656892977912864e-01 0.0000000000000000e+00  -2.1567976729898256e-01 -4.0366728107353722e-01 0.0000000000000000e+00  -7.6469359128591860e-02 -4.5584622668608343e-01 0.0000000000000000e+00  6.9485505135691378e-02 -4.5814700570015765e-01 0.0000000000000000e+00  2.0472499214297157e-01 -4.0653694145219410e-01 0.0000000000000000e+00  3.1671895165193081e-01 -3.1493324915197102e-01 0.0000000000000000e+00  3.8837703254687178e-01 -1.8713883506463369e-01 0.0000000000000000e+00  4.1696356466981549e-01 -4.4586113610535980e-02 0.0000000000000000e+00  3.9932578941907865e-01 9.7135698173926227e-02 0.0000000000000000e+00  3.4264615447517516e-01 2.1965663451718079e-01 0.0000000000000000e+00  2.4738227623887482e-01 3.0336844174251865e-01 0.0000000000000000e+00  -6.6452947374191232e-02 -2.5587600709313896e-01 0.0000000000000000e+00  -1.0739256585718990e-02 -2.6639294764845434e-01 0.0000000000000000e+00  4.6916290161080614e-02 -2.6399301164371436e-01 0.0000000000000000e+00  1.0457381995969349e-01 -2.4501085209406145e-01 0.0000000000000000e+00  1.5515340547397063e-01 -2.1143311223541864e-01 0.0000000000000000e+00  1.9285664619904183e-01 -1.6210216880832551e-01 0.0000000000000000e+00  2.1202073767198687e-01 -1.0292821651304207e-01 0.0000000000000000e+00  2.1751596769778125e-01 -5.4963911544491685e-02 0.0000000000000000e+00  2.2089748642405185e-01 -7.6645518529863876e-03 0.0000000000000000e+00  2.1935881818149902e-01 4.7069229058931406e-02 0.0000000000000000e+00  2.0420953081338783e-01 1.1087097563926403e-01 0.0000000000000000e+00  1.7005513565903121e-01 1.6668597117953871e-01 0.0000000000000000e+00  1.0774684549949338e-01 2.0807233774095876e-01 0.0000000000000000e+00  4.2710101594153872e-02 2.1430788333517800e-01 0.0000000000000000e+00  -1.7167970542962471e-02 2.1145602756670093e-01 0.0000000000000000e+00  -6.8190121202452617e-02 2.0379105134484965e-01 0.0000000000000000e+00  -1.2102779493459283e-01 1.9008376375905262e-01 0.0000000000000000e+00  -1.7676147481184509e-01 1.6425074176412024e-01 0.0000000000000000e+00  -2.2711241844805524e-01 1.2535374687489301e-01 0.0000000000000000e+00  -2.6606202097735554e-01 7.0934090447959064e-02 0.0000000000000000e+00  -2.8328761389442197e-01 4.9054728630346153e-03 0.0000000000000000e+00  -2.7867244551094694e-01 -6.2292224628618477e-02 0.0000000000000000e+00  -2.5543352724977803e-01 -1.2025032402854681e-01 0.0000000000000000e+00  -2.1392041209803375e-01 -1.7035873691062400e-01 0.0000000000000000e+00  -1.6706307510708659e-01 -2.1085375040082713e-01 0.0000000000000000e+00  2.4896014030538346e-01 3.0057928462627848e-01 -6.0322528499043265e-02  1.5489538755265428e-01 3.5648904113481894e-01 -1.1051127035868388e-01  1.4148135220472965e-01 3.4628217104869552e-01 -5.5365700863921369e-02  3.3613315145881495e-01 -1.6530359331274472e-01 -2.1706233059881916e-01  2.8514717726398714e-01 -2.5207629688332484e-01 -1.9598520230078464e-01  2.7702305118145132e-01 -2.3022242497433443e-01 -2.4202823110910021e-01  3.4586763843290558e-01 1.6279726031473743e-01 -8.0087652056326758e-02  3.8534560640487014e-01 2.5162539851116272e-02 -4.3837323640395706e-02  3.7119263703752003e-01 6.8487562171353863e-02 -1.0410735627103809e-01  3.2998789133745965e-01 -2.1676223526204424e-01 -1.5533169883632145e-01  -1.6035553375709122e-01 -3.6447115546420389e-01 -2.3217181285286195e-01  -1.9757251164689707e-01 -3.2860783055307885e-01 -2.8718855056229986e-01  -8.6768159593459501e-02 -3.5437482706626766e-01 -2.8255233623951198e-01  2.0679523096424213e-01 -2.6839210647281431e-01 -2.7630228583993044e-01  1.3120334523104771e-01 -3.2508338986601076e-01 -2.4854194858841822e-01  1.1617827209519761e-01 -2.9568781249842102e-01 -3.0737810207671734e-01  2.0370069406429081e-01 -3.0838171376748508e-01 -2.1468584902945229e-01  3.8350622577555843e-01 -4.4491688073318741e-02 -7.0825187679467300e-02  3.9291310570483506e-01 -9.7208485400441830e-02 -2.3791151973620240e-02  3.7263811421713411e-01 -1.4971849348379956e-01 -6.6193912923523821e-02  3.3229286921796730e-01 2.1000093346584886e-01 -4.2024235266309100e-02  -2.8698159331945139e-01 8.5390525858941538e-02 -3.0572855435873686e-01  -3.2098790999006543e-01 6.5423974802101562e-02 -2.6254037486233023e-01  -2.7179918651047452e-01 1.6707536118239935e-01 -2.2834940057591416e-01  -1.9133549209472997e-01 -3.7489081245274669e-01 -1.6720240977568543e-01  -8.6955207107774241e-02 -4.1424482198010099e-01 -1.2516931737651946e-01  -1.8189866985603287e-01 -3.9296140478370767e-01 -8.4898054622405766e-02  -3.2783795051853598e-01 1.1656841485075795e-01 -1.9627629832674637e-01  2.6203435442027384e-01 2.8044699040892598e-02 -2.9964586336417687e-01  2.7503484480412987e-01 1.1358597510554828e-01 -2.5860017444275440e-01  3.0310815398622754e-01 3.9435835109744846e-03 -2.6865563287860367e-01  3.0453882821284678e-01 -1.0659483740976418e-01 -2.8500820988277253e-01  2.6728307168659499e-01 -1.9913170257589780e-01 -2.8898064993461497e-01  2.4010372707554697e-01 -1.7045333236192919e-01 -3.2700850511173368e-01  -4.2423200504437386e-01 -1.2336084227643621e-01 -2.9064419546505635e-03  -4.2819610142029757e-01 -2.6664922053512442e-02 -2.5193460047250375e-02  -3.4398861322777807e-01 2.3571695898052786e-01 -4.8277688482366306e-02  -2.4979111028798651e-01 3.1361018076205821e-01 -5.0724189603018464e-02  -2.8062074236164697e-01 2.8976589523498492e-01 -7.9785090917394233e-02  -4.1962559987222932e-02 -4.3864781267603842e-01 -6.5706683793043064e-02  -1.5836948353327349e-01 -4.1466880112327037e-01 -3.3040691635450779e-02  -2.6556185389152182e-01 -3.5300289432462195e-01 -2.2126589092120660e-02  -1.4855228809786869e-01 3.5629105994948634e-01 -6.3251259127055037e-02  -2.1160160389727792e-01 3.3565947528110046e-01 -8.8536267199249979e-02  3.3000478180212411e-01 -1.2800217640947648e-01 -2.5464906201661597e-01  -2.5065986330171702e-01 -2.4471109567317942e-01 -3.9078982181451577e-01  -1.4484610588477506e-01 -3.1376207409375861e-01 -3.6036787077421661e-01  -2.6361786480739768e-01 -2.7482944174308882e-01 -3.2218329263233636e-01  1.3985375173455469e-01 3.8809423576916169e-01 -1.5574514035363368e-01  1.4918595598434103e-01 3.7226504225845358e-01 -1.3789736385351334e-01  2.2867765078236377e-01 3.2195294649993123e-01 -1.5048078831945080e-01  2.2737252580110345e-01 1.2293217899199506e-01 -3.0719283387696472e-01  2.4074959845768307e-01 3.0786182741836737e-01 -1.3434757471941261e-01  3.3393440176788292e-01 -2.5340909346985069e-01 -5.6142463588237559e-02  2.7664998407521479e-01 -3.4134711546693958e-01 -2.8610393790897321e-02  2.9590534005449604e-01 -2.9274523514779544e-01 -9.3048701514506754e-02  3.5930739809097012e-01 9.0987927920772718e-02 -1.5432942800721133e-01  3.2063221285644106e-01 2.0299492416050890e-01 -1.3426116326871790e-01  -1.9856334014260799e-01 1.5721037429401796e-01 -3.3790872397101418e-01  -1.5965856044253271e-01 1.6992061182862433e-01 -3.6104947755828276e-01  -2.0540424918629063e-01 6.8963709840419732e-02 -3.9365185884657899e-01  3.1574600723137924e-01 1.8825373513165861e-01 -1.6803752467758987e-01  2.8814286584905500e-02 3.7802372323685546e-01 -9.7889814554445634e-02  2.4531185649077070e-01 2.9456247208734176e-01 -1.6828916153397180e-01  -3.6831782957985121e-01 -2.3770470013587580e-01 -1.2199868105350569e-02  -3.0441837772498670e-01 -2.9731729169251669e-01 -6.1966606551365197e-02  -3.8527769005417573e-01 -1.7791040613845560e-01 -4.1997118968903312e-02  -3.4372707049548851e-01 -2.3658277009850484e-01 -1.0536950407900564e-01  4.3430883405043863e-02 3.9479397271922251e-01 -1.2498603790373129e-01  1.0732102704827227e-01 -4.2494344197233702e-01 -5.9612604864392460e-02  1.7250378661266952e-01 -4.1660757718093600e-01 -1.9278850998182592e-02  4.4044069427378561e-02 -4.5081618323951639e-01 -2.5883914393835025e-02  2.7924069669808482e-01 2.7213230389632864e-01 -1.0075055099401728e-01  -1.4333519375387380e-01 1.1867211608246277e-01 -4.0321141897323526e-01  3.5528106185921687e-01 -1.8654545524385172e-01 -1.0752050091178175e-01  -2.9015739244280675e-01 -1.3506635928060251e-01 -3.9790261334947302e-01  -2.9906290009222880e-01 -1.1058733324354730e-02 -3.5939887776140855e-01  -2.4997219729335290e-01 -4.7495035053536819e-02 -4.1425940646875203e-01  2.1387849268305642e-01 -3.7440755863394820e-01 -7.2204340082574425e-02  -1.0357532633421399e-01 3.7809832477679983e-01 -1.0711164651399842e-01  3.5992697156418152e-01 -4.8820377832239602e-02 -2.2370894106141753e-01  3.6559978597739290e-01 -9.2105210055548975e-02 -1.8983334595298354e-01  3.7149376398609185e-01 -2.1131298855386792e-02 -1.6843415956914948e-01  3.6880312128873377e-01 -1.1410735681304099e-01 -1.5273225589291922e-01  -4.1389391418090526e-01 1.1780838663469026e-01 -3.1789766896141554e-02  -3.9519300007211466e-01 -1.0447776100237663e-01 -8.2583349166304679e-02  -3.3162401200074615e-01 2.3013124261438878e-01 -8.8654984883864335e-02  -3.8304396201531338e-01 1.5718779378092163e-01 -6.8641006954931708e-02  1.3316643952515414e-01 -3.8783314781932393e-01 -1.2137480438912128e-01  8.6839177406695917e-02 -2.7329450452224607e-01 -3.6501730880873018e-01  -5.2831721223270478e-03 -3.2502830766457674e-01 -3.3177719863633776e-01  3.1493656174931856e-02 -3.4915371925118888e-01 -2.6570855401517823e-01  2.4357577408620276e-01 -3.1357853228398053e-01 -1.4902230917934139e-01  -2.6566950121317850e-01 -3.3268338572067829e-01 -1.1420482420957781e-01  3.7973788603628661e-01 -4.9252938992324698e-02 -1.2259826551428847e-01  2.0643903905607469e-01 3.0416149434193923e-01 -2.2403073184713471e-01  1.7572540372694387e-01 3.5433678033555543e-01 -1.8475726782624918e-01  2.5776635865522995e-01 2.4784571671872432e-01 -1.9864511904220630e-01  -2.9896705421541087e-01 -2.9050372016049153e-01 -1.7847061614388993e-01  -8.1451893359390626e-02 -4.4724008663429765e-01 -1.5167014929213372e-02  -3.2736697067046255e-01 1.8106492277003541e-01 -1.3391839175175638e-01  -2.3983510005456712e-01 3.0600268808083514e-01 -1.0737215384510664e-01  -3.7816438320778650e-01 1.2078931711612835e-01 -1.0748010947979483e-01  -3.6996639995316055e-01 -1.7813231719236577e-01 -1.4907964899691209e-01  -2.5352741487267166e-01 6.3894389261071216e-02 -3.6071209570156620e-01  3.5988498533838181e-01 3.9792254226414678e-02 -1.8982339980853938e-01  1.8844382581464655e-01 -2.3437761367618631e-01 -3.2951824183749440e-01  -3.5462237642485889e-01 -1.9884572913386181e-01 -2.1515795613646874e-01  -3.8466428082737525e-01 -1.1118605464827985e-01 -1.7183502125598146e-01  -1.2017966225685456e-02 3.9871311376602042e-01 -1.3764166801822561e-01  -1.0733251141634813e-01 3.6101200171199821e-01 -1.5095739857101431e-01  -6.6130685694535174e-02 3.9047467923413881e-01 -1.2455455420521537e-01  -3.8337949071319111e-01 -7.9349329199956214e-02 -2.0836543665998333e-01  -3.9324929287424754e-01 -4.3596177258923043e-03 -1.4283145793968524e-01  -3.7350475280857426e-01 4.4297749871296241e-02 -1.7614041661383290e-01  -5.5423805489611426e-03 3.9209346688300245e-01 -1.7086006592932509e-01  -4.0952418325222362e-01 4.0113512627638362e-02 -7.3888576531748115e-02  -3.9529097604451652e-01 -7.2813532405668735e-02 -1.2391963838493864e-01  -3.3110013741225436e-01 -2.1282950003241455e-01 -2.8466365923444625e-01  -2.9769163743756899e-01 -2.7336017380573208e-01 -2.5268013494346031e-01  3.5048043433059706e-01 -2.4301909584111417e-01 -1.3675218238574682e-02  -5.2798079658913595e-02 3.7362053160256631e-01 -7.1987615575291847e-02  -1.4553176943725729e-01 3.5849514413162242e-01 -1.2155448203121251e-01  3.6569046258132065e-02 3.6124906505674964e-01 -4.7144862655161109e-02  3.3490969932491899e-01 8.0253573818331911e-02 -2.0392842840775621e-01  3.0070256334662249e-01 1.8058503587441888e-01 -1.8932611063208010e-01  -1.1839670411766966e-01 3.3319157408825417e-01 -2.1220356622001660e-01  -6.3257975520940923e-02 -3.9140733521295978e-01 -1.9550568592953707e-01  1.1281965695892741e-02 -4.1303979765475474e-01 -1.3283845573951933e-01  -2.0391304141916858e-01 2.6940985283105096e-01 -1.9200701907888942e-01  -3.6497619428539174e-01 -3.2184491461533293e-02 -2.5599382894228967e-01  -1.7692976914308078e-01 -2.5382223176755623e-02 -4.4186756402742777e-01  6.4621947908738001e-02 3.9845955241105813e-01 -1.9444854889132904e-01  1.1256525614771760e-01 3.7241444304295968e-01 -2.3035120432292694e-01  1.7048529170899587e-01 -3.5091470149196452e-01 -1.6717034684034632e-01  3.0653311589675902e-01 1.1194095825459335e-01 -2.2464886905327230e-01  5.7927180155498068e-02 -4.2528483479775114e-01 -9.0694478246455781e-02  -3.5032615128575340e-01 -1.3631000270190985e-01 -3.1374362376087300e-01  -3.6315419404922716e-01 -1.3603711915849562e-01 -2.6203568214501249e-01  3.3929976669163830e-01 -1.8197617884623807e-02 -2.4454856413103809e-01  -2.6725406914300476e-01 2.2788957228896117e-01 -1.5976629734692849e-01  2.5448391032214240e-01 -9.3469859941483990e-02 -3.2335024185252020e-01  -1.9628751276504564e-01 3.0942501661564764e-01 -1.4125815712844397e-01  6.8884261492733995e-02 -3.7141159318886130e-01 -1.9589822518501246e-01  1.4389849004474670e-01 2.6556625390950406e-01 -3.1050859046150597e-01  2.2445363780656324e-01 2.2761133783825732e-01 -2.6428941305166637e-01  1.9872080387242447e-01 1.9565942380834625e-01 -3.0315534475795519e-01  2.6808202800036984e-01 1.9693529584167260e-01 -2.2933666119545687e-01  3.8404061827765307e-01 9.6930667375214580e-02 -2.4480472763835248e-02  -3.3762048788707122e-01 -4.1129873055188580e-02 -3.2465325302924924e-01  2.8303976811877651e-01 2.6450464071700985e-01 -1.4741240838827621e-01  -2.1561131856171212e-01 2.1775366448622291e-01 -2.4877587793854430e-01  -2.3869870967005247e-01 -3.3240642971205447e-01 -2.2269414321661860e-01  -3.4785257755327682e-02 3.0837432930929637e-01 -3.1565607607117047e-01  8.2287004747225116e-03 3.6350592170011981e-01 -2.5579923275010902e-01  5.7371582218824706e-02 3.5229995066247877e-01 -2.7818145011199674e-01  -5.7882552996509296e-02 3.8522014786949409e-02 -4.4237392623615690e-01  -1.2409894589959784e-01 2.7422563078895918e-02 -4.4233741329614068e-01  -8.2267040712944939e-02 1.2005196694220832e-01 -4.1083864846621482e-01  -2.2906904928269101e-01 1.6046751018337505e-01 -3.0484322197614633e-01  -1.5257378404104210e-01 2.6294878967650498e-01 -2.7904263597664258e-01  -3.2181858092328493e-02 -2.9408716396713419e-01 -3.9433687705990900e-01  4.6993228662417202e-02 -2.5241569499186917e-01 -4.0559689382718223e-01  -6.9344696528724686e-02 -2.5444541101772916e-01 -4.3727695978713821e-01  -1.3902268456628589e-01 -2.8097384396371694e-01 -4.1054882199737891e-01  -1.0482742784857918e-01 2.2753499682394943e-01 -3.5608799747956071e-01  -1.2412591840495540e-01 2.5193037850435174e-01 -3.1930838388835014e-01  1.1356958693687487e-01 8.3719083389793392e-02 -3.8622863643801075e-01  1.7657434055357063e-01 8.3568409227509563e-02 -3.5698925862847292e-01  1.6707729493080981e-01 -1.7820960275829325e-02 -3.9154174339204456e-01  2.1700083894273012e-01 9.2421482763374117e-03 -3.4428047263156247e-01  1.5905053777579109e-01 -1.9740338296239865e-01 -3.7730358448451873e-01  1.8987581382081634e-01 -1.0796532306357227e-01 -3.7642139627766591e-01  1.3026166027864874e-01 -1.6711389280667616e-01 -4.0663458389449680e-01  1.0848799644149273e-01 -1.2261449674182118e-01 -4.3055074781969294e-01  -4.8211860998858574e-02 3.6241850804183684e-01 -2.2861567062133162e-01  -3.1304710598125629e-01 -2.0571705048132025e-01 -3.3914506133628397e-01  6.7497287614783796e-02 4.0332390778246263e-01 -1.4273024615251431e-01  -2.0533534445500229e-01 -2.2657392192390016e-01 -4.2811391941402482e-01  -3.2151212712668675e-01 -1.5933452635862888e-01 -3.6062815477977889e-01  -2.3611278523071430e-01 -1.4850377550992103e-01 -4.3460830814934048e-01  -1.5352497913408311e-01 -2.0078078007483793e-01 -4.5311700562281565e-01  -1.7525791373991190e-01 -1.2879270388899211e-01 -4.5687801442853421e-01  -1.1615539910507332e-01 -9.4324498996336714e-02 -4.6817036581321975e-01  -2.4757639981217255e-02 -4.4680967556107946e-02 -4.5964869008341180e-01  -7.1972550012418215e-02 3.2096703257503084e-01 -2.7893657908400787e-01  4.0614848411296194e-02 -2.0697005299343416e-01 -4.3724289442618569e-01  2.3170922140682820e-01 -5.1857985747460887e-02 -3.3971960547867919e-01  -5.0762047533350674e-02 2.3606139166229950e-01 -3.6290943077927751e-01  6.2986622565768216e-02 3.1148539951501431e-01 -3.1546986929589749e-01  -7.3948574419423513e-02 -1.8653385219556340e-01 -4.6394909277983465e-01  8.2583544522952121e-02 -4.9939708010030164e-02 -4.4401726361072757e-01  9.0917489377525945e-03 -1.2816996526070756e-01 -4.6200273459531388e-01  1.4710763556394726e-01 1.7469413525586311e-01 -3.5028169299075756e-01  5.0107516791208180e-02 2.3268945000469163e-01 -3.5970856289622710e-01  1.4240565709985156e-01 3.2533748275103469e-01 -2.6936466173374080e-01  -9.3863522294575820e-03 1.2195914490226367e-01 -3.9135879996259337e-01  2.8915577561466344e-02 2.9969280332696857e-02 -4.2503333456720027e-01  -3.1567143040554448e-02 1.7840750424348306e-01 -3.8114347143239735e-01  6.9300441254494652e-02 1.5562362507661545e-01 -3.7798399311488201e-01  1.3254103909279327e-01 1.3170176025306962e-01 -1.6061818750694845e-01  1.5162205593856448e-01 9.6610996157391271e-02 -1.5078696481267245e-01  1.3831774403858249e-01 1.2145838347411241e-01 -1.9400347809076232e-01  -1.6910254770760358e-01 1.2162595798902537e-01 -9.8715827757951777e-02  -2.0883566625008035e-01 1.0716718179946629e-01 -6.7239353433920152e-02  -1.8102364032385898e-01 1.4619471405846271e-01 -5.0113007803369226e-02  1.5153330634201898e-01 -1.9387814139346263e-01 -5.5872403645034360e-02  1.0948053259675022e-01 -2.2784749623475753e-01 -6.5237640355623530e-02  -2.3687947219738628e-01 -7.8985037247441631e-02 -7.0167061786826898e-02  -2.2386813638472586e-01 -1.2316148554884515e-01 -5.0796254502139149e-02  1.5241253526095672e-01 8.3101496759693805e-02 -1.7172577460817334e-01  2.0677023524555063e-01 -7.2570088657953793e-02 -4.1566252797913310e-02  2.0843958028579943e-01 -4.5802321733601069e-02 -4.1951731357616401e-02  4.8512577786546029e-03 -2.0757013060751898e-02 -3.9098556051053907e-01  -1.1197560815122879e-02 5.8089593330156626e-03 -3.8260374187451945e-01  3.5581887457377774e-02 1.9112039327003040e-02 -3.7511750595582599e-01  1.0512350115702115e-01 1.8536349811033817e-01 -3.9811046908871821e-02  1.3493799350717697e-01 1.5997745924414528e-01 -5.9836817354016872e-02  1.6839753582944264e-01 1.2754836285876339e-01 -6.4231774955177096e-02  -1.9054850541187404e-01 -1.0628678469669578e-01 -1.5374145291508787e-01  -2.0399353964421887e-01 -6.5861261459036036e-02 -1.4016268110706284e-01  -1.9909579249361725e-01 -7.4720150867329541e-02 -1.7335394780849275e-01  -2.0324315950056396e-01 -4.1649230379399230e-02 -1.4990372747467751e-01  1.2261618610488955e-02 3.5337767606179682e-02 -3.7129905123043544e-01  -4.6900552239902131e-02 1.7804159773704767e-01 -1.0646923895129803e-01  -5.9398406264173628e-02 1.8303664164073755e-01 -7.8175445381725717e-02  -4.5611271759240356e-03 1.9124125901272240e-01 -6.9323639683665964e-02  -1.9758160786494117e-01 -8.5907854207783227e-02 -2.1656944673940756e-01  -1.9862775407019950e-01 -3.4505546261120859e-02 -2.0334148763479162e-01  -1.8351959210920055e-01 -1.2233644852428038e-01 -1.9573384282706197e-01  -4.4527625696939639e-02 1.9578320569563765e-01 -5.0987375605652981e-02  -7.9473555223624107e-02 1.9127678545949497e-0