<?xml version="1.0"?>
<VTKFile type="UnstructuredGrid"  version="0.1"  >
<UnstructuredGrid>
<Piece  NumberOfPoints="651" NumberOfCells="1976">
<Points>
<DataArray  type="Float64"  NumberOfComponents="3"  format="ascii">0.5706560079931404 1.975124989301501 -1.317395712026806e-15  3.045851201101109 1.078291546404098 -1.096204126063733e-15  -0.1010823284146681 1.988346501167346 -1.334814282659531e-15  -0.7433969568848171 1.758726002165291 -1.328235121678995e-15  -1.273906781406899 1.34036777334396 -1.330284227806684e-15  -1.67739825219792 0.8051435153685963 -1.112093185485162e-15  -1.924456979632376 0.190046501244831 -8.859620484986984e-16  -1.970627369103437 -0.460629488573864 -6.631294347113879e-16  -1.70741872912246 -1.062601296968868 -4.412289663707665e-16  -1.254278437537993 -1.552701367755466 -4.38208049168928e-16  -0.6548080235530014 -1.863082560804604 -4.388971884834935e-16  0.005875358376003892 -2.005514102294662 -4.42132888321435e-16  0.6664324248425265 -1.895779478680674 -4.422649809048056e-16  1.278549633837131 -1.61089067851616 -4.382305915257222e-16  1.765772351155661 -1.147838768235104 -4.419018223060431e-16  2.094781988847601 -0.5718217741500355 -6.565613577154222e-16  2.183944665823534 0.09052226842191556 -8.758022475850128e-16  2.084265324417018 0.741744753465798 -1.102412493423563e-15  1.720790849075881 1.30354883424252 -1.327925044276047e-15  1.210810070616739 1.739424639655224 -1.316484291810635e-15  2.62947511939111 1.665189383515098 -1.334409189018687e-15  2.069798350564069 2.112007521508502 -1.330811015458671e-15  1.429269287409224 2.41676032428329 -1.562069673944945e-15  0.7604782263147631 2.609877387044729 -1.541668536394544e-15  0.07435595837912989 2.731046416998345 -1.542653392036792e-15  -0.623575976637148 2.732255743832329 -1.537208914587897e-15  -1.305038812699075 2.555006825028618 -1.553245320229695e-15  -1.927997440469176 2.216514946508005 -1.335499717558633e-15  -2.4576771255087 1.741743931581019 -1.325629113107677e-15  -2.8587364179005 1.152683998656209 -1.319480128311911e-15  -3.109609758535633 0.4811762976855817 -1.101010294357081e-15  -3.167653602144563 -0.2294447087782085 -8.596084646135721e-16  -3.026922495340421 -0.9301992495621525 -6.530231737654561e-16  -2.722382572203385 -1.569947685487728 -4.340025114073047e-16  -2.276417207256314 -2.124468000895541 -4.332988425859085e-16  -1.719995864603453 -2.564642234040763 -2.037584545098216e-16  -1.084806002466288 -2.876009967026618 -2.030657607900954e-16  -0.3972224148486667 -3.048145198880035 2.010958414411308e-17  0.3128040354555959 -3.053206532813364 1.534325096699925e-17  1.003398896366763 -2.888603824969834 -2.256419881151357e-16  1.640994403379068 -2.59189354615271 -2.157537299885543e-16  2.209259198839952 -2.165529036181606 -4.279121705815961e-16  2.679582011948748 -1.641162776478886 -4.318637872244072e-16  3.029998498944607 -1.021503181201245 -4.324986530311204e-16  3.230573203387812 -0.3351809322679649 -6.5124202710066e-16  3.260299174988763 0.3861729219351382 -8.763675055521372e-16  2.237094979636521 0.6712836752701576 -0.7959259918925217  1.971286952465735 1.114928034802002 -0.6765976536977549  0.6130750156229015 1.658691843548812 -2.385403073491008  0.6457469365342299 1.899226785238379 -3.279696751159521  0.03828607303126777 1.991867319623793 -2.797778727761525  1.714663303449211 -0.5203092137360854 -5.759478164771309  2.029472890654497 -0.1441265246454759 -5.423988081509051  1.787343706753768 -0.6319211683832663 -5.049563590215816  2.017225536543709 0.8173221699824024 -1.353243682783151  1.240662049364032 1.636868608374547 -0.8586972957806589  0.9554296306844778 1.569407654218863 -1.517580004023856  0.6774199717890577 1.856672902487128 -0.8002482902977879  2.370103522362484 -0.1074952977250793 -0.5381130336118041  2.303191519690629 0.1425589678364548 -1.284502888194297  2.341127619467893 0.3455965705230225 -0.5198667796927464  2.319473812154765 -0.566662457587306 -0.8290026794615969  -2.136020969708695 -0.110417394001767 -0.4557776738912301  -2.101459231329789 0.5086156527585695 -0.7452734299731303  -2.336883716856967 -0.1110436400941154 -1.199445563076722  1.546273582160045 1.29167116758026 -1.353576940538132  -0.305877226045184 -2.256169974598381 -1.787482769820377  -0.836449209353388 -2.103248896470143 -1.823016486777843  -0.543328133322354 -2.151649645218325 -2.37984602568955  -1.161967649561014 -1.8743436584551 -2.310851034490456  -2.115495750641113 -0.7461695142922887 -2.404325950318252  -2.413077356189256 -0.0318990001880646 -2.052254165159823  -2.29076350336081 -0.1803752980181042 -2.696999184262721  1.216213639403952 1.308722528310748 -2.096653346255889  -2.377723773366156 0.3522273434228833 -1.440106726070488  -2.15750313260362 0.968560371373116 -1.499991335486697  1.948543952524668 0.09237874136002742 -6.193679331997695  -1.100205237451322 2.057219021472298 -2.631542254122845  -0.8699584176202013 1.913917668109151 -1.992551258312445  -0.4910472061138519 2.024211046554249 -2.408784313122356  -1.470348612551012 1.775811472846702 -2.024580046115186  0.8159644413917695 -2.062068461226803 -2.136145774322783  1.018712791784186 -2.03206662848745 -1.565098881899254  0.4037585511915516 -2.226564513984112 -1.755203074586331  0.5817211607402286 -2.207479606401742 -1.210557557861982  -2.232118800298898 -0.6578863988610777 -1.57713141332098  -1.956296465818891 -1.159390165368194 -1.744205647148253  -1.652956583141356 -1.513040910152584 -1.1653526583677  -1.246879726485509 -1.870890882665381 -1.519213305238975  -1.287649170961531 -1.760344582011494 -0.8072512534235238  -1.720939502722012 -1.32450885490595 -0.5376138704351455  -2.000176350031417 -1.057018852048078 -1.007144512609971  -0.003147294457286336 2.174148293298837 -3.4102948064431  0.2417215568819549 2.200651430215546 -3.900491049817641  -0.4055309560136194 2.308709669285536 -3.985279403915881  2.023932268951731 -1.138201902752461 -1.211160734309756  2.076795652936953 -1.043964752028186 -0.5035890703001262  -2.007693783118652 -0.793775919874304 -0.4337603850442396  -2.208023802745701 -0.5344767571116085 -0.8617929711054408  0.07596008911801083 2.280632073088681 -4.558700693714371  -0.7349428530752187 -2.09776313194407 -1.191470649879876  -0.9094710041594906 -1.908712166743303 -0.5160467636790458  1.7235129204424 1.439648220449268 -5.279017897487646  1.308306782172374 1.832558557979483 -4.783443061726107  1.801326562479916 1.399835092118761 -4.535416117626489  1.252842385779099 -1.82776320157725 -0.5426716443588138  0.9249237643130661 -2.047951467309306 -0.8366270028568198  1.646641457017785 -1.301996871486172 -3.076130183111372  1.997601927240293 -0.7229665344246358 -2.612982683345982  1.685083259820384 -1.353636829447203 -2.308770058309887  0.06199404898790653 1.871282927120549 -0.8901753359370455  0.3753249158816455 1.739853519017724 -1.566418905327295  -0.4688672341113252 2.267653093770903 -4.729139378752858  -1.065835820433684 2.186241751272882 -4.278198333540813  1.138506753951192 1.776295462512158 -5.629977666189852  0.4139626375261757 -1.662507487728822 -4.129217343134699  0.872902625058663 -1.642336042430313 -3.890949726680158  0.4476390516548099 -1.8523267133419 -3.621780670912047  1.998984631978104 -0.9470325900184638 -1.905945975484555  0.9617428596149999 -1.792064750591329 -3.25801048794628  -1.680163267838339 -1.093300546545458 -3.121852749546346  -1.687810833623465 -1.393050705403747 -2.385782233178992  1.733265387214634 -1.490821446467481 -0.6184828567535821  1.507902504223368 -1.744555557813017 -1.260159914158572  0.7231603496530916 2.09733690361371 -4.26052090721227  0.6241726382132278 2.058114732539756 -5.096623540871579  2.141085574361382 -0.3003699806517423 -1.938498246538051  2.234497255886921 -0.5713087198447637 -1.429070773030438  -1.107803313358058 -1.457552262120817 -3.557039382018216  -1.33034389827567 -1.590898089651156 -2.880251067166835  -0.5892154033263827 2.213957439556286 -3.208573036330245  -1.308319552502131 2.073355914031913 -3.373038690373279  1.958738999995686 0.4708506204555216 -2.592329268720543  1.692739689751762 0.8992743809629853 -2.061367815027074  2.044302369570358 0.3803541528620658 -1.96645425022142  -0.4143003761110268 -2.096325549461592 -0.5888745271598747  1.283043233957121 1.786900178137443 -4.011718666253749  -1.633592802569255 1.845860957795053 -3.992491717123243  -1.82475445143636 1.729517277396436 -3.301542006194891  -2.324213513249061 1.067208024762296 -2.269597179260373  -2.356802280529911 0.9711905131202648 -2.977509014010499  -2.433470111913793 0.4167208743157455 -2.678734913954096  -1.683839402588158 1.847253807062429 -2.633198258926363  -1.594455124991369 -1.586317685132554 -1.821114970150426  2.151527220461155 0.2316023581977204 -5.002562067398495  2.111675751781281 0.4992884266173421 -5.606929847907854  2.052706979753904 -0.3011333377922781 -4.560639150516446  2.122498590905496 -0.06028075217464474 -3.041495870591649  2.013915846131139 -0.66002626398957 -3.364965246046956  2.079560097865742 0.5174859169178277 -3.251345691503034  1.312371769271732 -0.9759287134392296 -5.235892472233924  0.7902325008903299 -1.181797154728993 -5.11212196499849  0.7587597957801788 -0.9896416911071791 -5.724770668952081  1.001588893253988 -1.377363816356344 -4.47939435855162  1.344790211283276 -1.416339318053704 -3.796041507367443  1.735598114951012 -1.084460420430912 -3.661310946324817  -2.00707778953639 0.3068557413005516 -4.109517500500946  -1.801029926505673 -0.2039408085763065 -4.092343130657289  -2.063052606297643 -0.07945979987223209 -3.590384458175627  0.48581332772845 1.897957747239668 -5.753592965861403  -0.1086386378330138 2.041739798408774 -5.367239894349652  -0.3285340186157623 1.814438039634278 -1.566093689883793  -0.646152539984612 -1.919006807688381 -3.090169843558486  -1.759240885069143 -0.6133059993795531 -3.710675745811932  -2.255894132017506 0.5281699262774349 -3.479288418990748  1.333064493742181 -1.775575952587632 -1.971818949288319  1.758216188590726 -1.389533973385896 -1.782957714912074  -1.9790738
[...]
<PointData  Vectors="f_4585618-0"> 
<DataArray  type="Float64"  Name="f_4585618-0"  NumberOfComponents="3" format="ascii">1.4597672630015396e-01 4.3069320391623944e-01 0.0000000000000000e+00  1.8834867846284337e-01 2.3876122923467951e-02 0.0000000000000000e+00  2.4792707824093464e-02 4.5490256136311469e-01 0.0000000000000000e+00  -8.7734004066989835e-02 4.2539666462535475e-01 0.0000000000000000e+00  -1.9196668212771245e-01 3.4809616036370938e-01 0.0000000000000000e+00  -2.7030503524737648e-01 2.3460251912513036e-01 0.0000000000000000e+00  -3.2981463813401946e-01 9.6057933072220186e-02 0.0000000000000000e+00  -3.6342770589622486e-01 -5.8071235391750749e-02 0.0000000000000000e+00  -3.6413419875751202e-01 -2.2435205175856990e-01 0.0000000000000000e+00  -3.1475192450026629e-01 -3.6752849321361591e-01 0.0000000000000000e+00  -2.2146985819889778e-01 -4.6658895687095342e-01 0.0000000000000000e+00  -9.8609567823249075e-02 -5.0797819767927344e-01 0.0000000000000000e+00  3.5315118362029774e-02 -5.0208503582094921e-01 0.0000000000000000e+00  1.5032738190578399e-01 -4.4397096584516588e-01 0.0000000000000000e+00  2.4413342837513943e-01 -3.4628872898446389e-01 0.0000000000000000e+00  3.0677099449641970e-01 -2.1488174842502769e-01 0.0000000000000000e+00  3.3350855792666473e-01 -7.0850593041779653e-02 0.0000000000000000e+00  3.3241405101030175e-01 8.2177880286533986e-02 0.0000000000000000e+00  3.0614658635100128e-01 2.2733686462110486e-01 0.0000000000000000e+00  2.3855448790741762e-01 3.4997145542140556e-01 0.0000000000000000e+00  2.0068988360453985e-01 9.2509645628850917e-02 0.0000000000000000e+00  2.0056396644100999e-01 1.7626078637066084e-01 0.0000000000000000e+00  1.7155225033050434e-01 2.6381539860104358e-01 0.0000000000000000e+00  9.9995418432674996e-02 3.2799882123363683e-01 0.0000000000000000e+00  1.2566667851032789e-02 3.3564721054198815e-01 0.0000000000000000e+00  -6.6079042346464695e-02 3.0051186242935135e-01 0.0000000000000000e+00  -1.2106991453015767e-01 2.4264466209583677e-01 0.0000000000000000e+00  -1.4975176861739856e-01 1.7525285941722693e-01 0.0000000000000000e+00  -1.6362993673665271e-01 1.1084867809849999e-01 0.0000000000000000e+00  -1.6793362548529364e-01 5.4363471363086613e-02 0.0000000000000000e+00  -1.7120181974027193e-01 1.4338668510585427e-02 0.0000000000000000e+00  -1.8534367590774800e-01 -2.9082826181316340e-02 0.0000000000000000e+00  -2.0256040495729305e-01 -7.8366417616091547e-02 0.0000000000000000e+00  -2.1118015685619954e-01 -1.4435450683681830e-01 0.0000000000000000e+00  -2.0704742729394793e-01 -2.0948222258945029e-01 0.0000000000000000e+00  -1.7906699558216849e-01 -2.7095989061234488e-01 0.0000000000000000e+00  -1.2943421548257145e-01 -3.1529821960649795e-01 0.0000000000000000e+00  -7.1518514764510627e-02 -3.3629190980405871e-01 0.0000000000000000e+00  -1.4900235385395300e-02 -3.3755700519311299e-01 0.0000000000000000e+00  4.2325640688261140e-02 -3.2464830546217510e-01 0.0000000000000000e+00  1.0107797670176288e-01 -2.8823158636853463e-01 0.0000000000000000e+00  1.3688050391645568e-01 -2.4163945633049674e-01 0.0000000000000000e+00  1.6526482770657025e-01 -1.7797104990813509e-01 0.0000000000000000e+00  1.7340282711267008e-01 -1.1915769929495974e-01 0.0000000000000000e+00  1.7248401267212332e-01 -6.4574919661738686e-02 0.0000000000000000e+00  1.7340597616405029e-01 -2.1059880943098814e-02 0.0000000000000000e+00  3.1240697694047204e-01 9.4579934669317273e-02 -4.9199157862450202e-02  2.9815137285786297e-01 1.9627375550829551e-01 -4.3076683529880873e-02  1.8953830516152390e-01 4.4979511586356125e-01 -8.9575294138736633e-02  1.8298018423836226e-01 4.4625192752307724e-01 -1.2325030816200952e-01  1.0105408890431226e-01 4.6164177962397601e-01 -9.7887387834456649e-02  2.0925552554001439e-01 -1.0171187403736862e-01 -3.3464142140956760e-01  2.5627367623989095e-01 -2.8330793123243981e-02 -2.9582979301778067e-01  2.3060315046716626e-01 -1.2707041170437799e-01 -2.9584366468062429e-01  3.0557361566429742e-01 1.6917415858090226e-01 -9.2283795136474833e-02  2.2623519305798773e-01 3.6894885318642928e-01 -5.9871844984885861e-02  2.0787650882396508e-01 4.1197913470238934e-01 -8.8258927270312815e-02  1.4437220459621863e-01 4.3537744849570847e-01 -5.1669586989802042e-02  3.1613724727773368e-01 -7.5023560101803541e-02 -2.5373553079650276e-02  3.1678720924939630e-01 9.9116141981230154e-03 -8.6879955269961409e-02  3.1864356323852644e-01 1.2295063110618997e-02 -2.5629207526029492e-02  3.0103117109916983e-01 -1.4936127276050470e-01 -4.7045478747074494e-02  -3.5214817853918312e-01 -5.0684584637986103e-03 5.2294845566175852e-05  -3.0960889363212424e-01 1.1420320319268830e-01 -1.0357518395892861e-02  -3.4932039303755413e-01 -4.6057269037160418e-02 -5.2403835356872673e-02  2.7223225885370728e-01 3.0597597520520448e-01 -9.2412707762383611e-02  -9.9498756824472567e-02 -4.5576894453665101e-01 -1.2806602258630753e-01  -1.8915276185881510e-01 -4.3669383436177150e-01 -1.3288851076656424e-01  -1.3517088089204451e-01 -4.3460372689382015e-01 -1.8875719749323966e-01  -2.4206203601441792e-01 -4.0689569977096984e-01 -1.8567208816512509e-01  -3.7411237545680603e-01 -2.3477084955865013e-01 -1.8954816588892065e-01  -3.5772517392818776e-01 -8.4472449713443393e-02 -1.3053949354391664e-01  -3.7399150693716471e-01 -1.4939901416745582e-01 -2.0412620431597467e-01  2.6185507846582934e-01 3.6477267015300846e-01 -1.0342941669394329e-01  -3.2245066223648694e-01 3.1351978173435109e-02 -6.2283703284995592e-02  -2.7256238562582186e-01 1.5359188289806217e-01 -4.9742304423697911e-02  2.2655839826307006e-01 1.9770617597332764e-02 -3.3785473174059677e-01  -8.6991753812060105e-02 3.6328490423818505e-01 -1.0630276454141761e-01  -5.9529565600632252e-02 4.0559881806857817e-01 -5.9313409412296653e-02  1.1556403590213810e-02 4.3739928942968442e-01 -8.0549690846122818e-02  -1.4801622356374164e-01 3.1922991980682475e-01 -6.6905441083979708e-02  9.8681253278901246e-02 -4.0799771808226015e-01 -1.5706147867237943e-01  1.2309350012429257e-01 -4.1476564125581511e-01 -1.0829485180904204e-01  2.1471151572814748e-02 -4.4953323909090531e-01 -1.2519263058071534e-01  4.1023075321147268e-02 -4.6030478128508234e-01 -7.5755149336503999e-02  -3.6800620067369927e-01 -1.7554683303063118e-01 -9.8902243368979292e-02  -3.5412017056407069e-01 -2.7928086094047627e-01 -1.2409283336744312e-01  -3.2094855327306354e-01 -3.3791326784040115e-01 -6.8673850103916703e-02  -2.5907091270320787e-01 -4.0648930225757901e-01 -1.0298267908818749e-01  -2.7998051764921272e-01 -3.9797860065591356e-01 -3.7710760761029499e-02  -3.4114863207710050e-01 -2.9185669641743212e-01 -1.6429607626159370e-02  -3.5568810605531753e-01 -2.3525182037807466e-01 -5.0842726111712526e-02  7.5529967206525314e-02 4.4284941700528035e-01 -1.4043110918207652e-01  9.2858201582074779e-02 4.3194692470795110e-01 -1.8022321362668270e-01  -1.5163363990104485e-02 3.8246546138090770e-01 -2.0055755140126408e-01  2.7218023746594772e-01 -2.4930591292834886e-01 -7.7935499131813871e-02  2.7568542143832570e-01 -2.6285582204836760e-01 -1.9842184703474059e-02  -3.6451365327765434e-01 -1.6314933008744978e-01 -5.7440954645659346e-03  -3.5951452146966206e-01 -1.1679251314686266e-01 -3.3373652532034802e-02  3.3347580385270567e-02 3.8645817483849987e-01 -2.4858079585552426e-01  -1.8439619461277376e-01 -4.5793794137285565e-01 -7.0070697919414920e-02  -2.3329613043893538e-01 -4.4761583554664225e-01 -1.6693825531341456e-02  2.3828113153806033e-01 2.7069424738820508e-01 -2.7563629479338686e-01  2.0459821204885265e-01 3.5466213881070580e-01 -2.4641647929068156e-01  2.7584011071096765e-01 2.6922089532149568e-01 -2.2203665055376923e-01  1.5179208247491571e-01 -4.3262911640011953e-01 -1.9684153309174553e-02  9.5815976868338162e-02 -4.5420595073668524e-01 -4.2141646582790585e-02  2.3126867382594621e-01 -2.3775241834077157e-01 -2.0169481962061131e-01  2.9378750633488615e-01 -1.2351775454698849e-01 -1.5825983613824596e-01  2.4657237688701494e-01 -2.6200791233432930e-01 -1.5806891952923094e-01  4.3486631808732266e-02 4.6459670395906633e-01 -4.4555817619851376e-02  1.2246418858634292e-01 4.6171147028975079e-01 -7.0331540201878581e-02  -5.8931176350116680e-02 3.2068339827855630e-01 -2.7481162451602709e-01  -1.2499500850502758e-01 2.7328685405863617e-01 -2.4317192305510593e-01  1.3914017360952571e-01 3.3524540810173903e-01 -3.1486027440969749e-01  2.4692771532544393e-02 -3.5521791306201678e-01 -3.2577334913891121e-01  1.0381730136293356e-01 -3.2471409398067214e-01 -2.8978899545562703e-01  3.7182492050448955e-02 -3.7211450261807055e-01 -2.8532438853694764e-01  2.8806225305835181e-01 -1.8466993965659190e-01 -1.2900704889326131e-01  1.2511209652175301e-01 -3.4118372060642549e-01 -2.4079229790317555e-01  -3.3830742801974817e-01 -3.2233077572286195e-01 -2.7314964536465680e-01  -3.2846919615765757e-01 -3.3962007706931080e-01 -1.9534159062234679e-01  2.2590515593769991e-01 -3.5055688995709583e-01 -2.7191542062293277e-02  1.9458826748570526e-01 -3.6501405734891612e-01 -8.1379618714093882e-02  1.4853883960010336e-01 4.1644900121517137e-01 -2.0706215622873059e-01  9.0422420367102241e-02 3.8190582665314526e-01 -2.8668433820192307e-01  3.1730649489961776e-01 -5.0211137711459686e-02 -1.2700133829117990e-01  3.0502861432245904e-01 -1.2402756545726071e-01 -9.5819331423419016e-02  -2.4646595317497955e-01 -3.8175828069456536e-01 -3.1622619636422383e-01  -2.7436116269687066e-01 -3.8155398642877142e-01 -2.4724968675296916e-01  -1.5697708857708499e-02 4.0334164999212468e-01 -1.3722181756319857e-01  -1.3305222421577090e-01 2.9720388981362084e-01 -1.7159058263796029e-01  3.2240184841711994e-01 1.3055817941797007e-01 -1.3237910588023888e-01  3.0565766960961310e-01 2.4269696239293917e-01 -1.1611244940947690e-01  3.2029144809513799e-01 1.0018217033316254e-01 -1.2235238863241764e-01  -1.4550190326053319e-01 -4.8753410752561993e-01 -2.2666934134307756e-02  2.3705711856597836e-01 3.7400745440278160e-01 -1.7917316877465289e-01  -1.9685836325363992e-01 1.8796323845508911e-01 -2.3607501338151865e-01  -2.0627045678600853e-01 1.9754635849479044e-01 -1.8764500601737108e-01  -2.6976721774196777e-01 1.0655584670496498e-01 -1.1941450859093762e-01  -2.9022842757575079e-01 4.6312666415301178e-02 -1.9047875976194270e-01  -3.3763059265975065e-01 -3.8645032127033144e-02 -1.8131278536951204e-01  -1.6975093466866203e-01 2.6427434040192277e-01 -1.2434511503201265e-01  -3.0963383994227306e-01 -3.5685998738930463e-01 -1.3393518245958599e-01  2.8864712047852853e-01 3.8776032049858064e-02 -2.6104759252351856e-01  2.6481191200208859e-01 8.8216542338643025e-02 -2.9369162407074512e-01  2.7764894395046974e-01 -5.8560456270546062e-02 -2.5089727396177419e-01  3.1349550062974696e-01 7.7891841017747590e-03 -1.5812796990049868e-01  2.8260831112127222e-01 -1.1092843367210882e-01 -1.9298761397862435e-01  3.1858149807149772e-01 1.1823431750312781e-01 -1.5271850472178186e-01  1.5989063428201938e-01 -2.1066130677614567e-01 -3.3515005882755811e-01  7.7055066869369387e-02 -2.8461741287197051e-01 -3.6081895605727132e-01  7.2917420598918509e-02 -2.4567133738683961e-01 -3.8711094608817181e-01  1.1770994367262305e-01 -2.8661451451813519e-01 -3.1963929148881021e-01  1.7692487886190134e-01 -2.6801212369389465e-01 -2.6103883259259525e-01  2.3609834665339091e-01 -1.9477178005126200e-01 -2.3105236638601470e-01  -3.3849344170373186e-01 -1.1851477234376354e-01 -3.2645930426972991e-01  -3.4967606948407104e-01 -2.1474779643220157e-01 -3.5115417526122500e-01  -3.6558671332077253e-01 -1.7413453567280182e-01 -2.9538791574162138e-01  3.3335295393342006e-02 3.3279294010587546e-01 -3.3932347692704090e-01  -3.6856511532579336e-02 3.1865139348726429e-01 -3.2557407247480613e-01  1.0435948301417516e-02 4.5677557936340168e-01 -4.9489499130092714e-02  -1.5573912827626710e-01 -4.1727018709717434e-01 -2.6274332807894429e-01  -3.5139446368160271e-01 -2.7043883887465314e-01 -3.2599228282388970e-01  -3.3532119861327292e-01 -5.5408034133173890e-02 -2.5581177255752313e-01  1.8383995387273033e-01 -3.5474536854709132e-01 -1.4111172907104555e-01  2.4749424464989128e-01 -2.8037552366998064e-01 -1.2424639076906556e-01  -2.1700816940587550e-01 2.1459249390645746e-01 -8.5448544544395072e-02  -2.0150916174000116e-01 2.7923535345272998e-01 -3.1016654921176858e-02  3.0518120901578832e-01 2.5360387522290267e-01 -1.4415977790338988e-01  3.1090156412090497e-01 1.5308731808870923e-01 -1.9363551769253590e-01  -4.6636812452357054e-02 2.5591251285498179e-01 -3.7408672773238805e-01  -2.2833872307250819e-01 5.6215135941173625e-02 -3.6199704719767367e-01  -2.7318097628341176e-01 -7.6922695172905134e-02 -4.0520646435947638e-01  -2.9359418177177193e-01 -4.7009569957079778e-02 -3.5420264592745554e-01  -2.2875523568904030e-01 -2.7957560403719935e-02 -4.2042697572416182e-01  6.4894544429136183e-02 -3.9526029629961346e-01 -2.1225843898545460e-01  1.7445322553281811e-01 -3.3329682132308641e-01 -1.8978063441406129e-01  2.6689220213101766e-01 2.9202502978958073e-01 -3.8097943831829705e-02  -1.2976827403318741e-02 -4.2958479840034869e-01 -1.8452572324833738e-01  7.5255118618793165e-02 -1.2819620036209309e-01 -4.3641994540705464e-01  -5.3107969701386183e-02 -1.9023298095705402e-01 -4.5329585867819228e-01  -1.7975104326979460e-02 -7.7651492484322654e-02 -4.5973182892796216e-01  5.2292772262362605e-02 -1.9652795331098014e-01 -4.2485341972611579e-01  -3.7368924514781976e-01 -2.4047534765583733e-01 -2.6482958483596741e-01  -9.7093214557387092e-02 4.0273743261369394e-01 -3.0916144925780053e-02  -3.1065702842636350e-01 3.2152620720531683e-02 -1.0868489278829732e-01  2.6430131421761927e-01 3.7441596463580046e-01 -1.1065515036084694e-01  -3.1016420287886470e-01 -2.8422069610447520e-01 -3.9168119045043537e-01  -3.0023554051542817e-01 -3.3559659198350439e-01 -3.4974568272452722e-01  3.0854121727196021e-01 2.5826055173061052e-01 -1.2031700827694462e-01  -2.1773401176078702e-01 -3.6053960197932500e-01 -3.8802998642369452e-01  -3.6882692345855078e-01 -1.3573274794994966e-01 -2.4296574350015587e-01  1.0226121233748596e-01 1.6796598698325393e-01 -3.8763934704894609e-01  1.6632357724382188e-01 6.9889648366498122e-02 -3.7602556419400618e-01  7.0685162104277929e-02 7.8839060769454183e-02 -3.9429867702989224e-01  -1.1342267364253165e-01 -2.8319529557003176e-01 -4.3402553480181727e-01  -1.9506802676448420e-01 -2.1941709261298709e-01 -4.5509408778173366e-01  -1.2516618601970136e-01 -1.1703781221520122e-01 -4.6860078594942117e-01  -5.9613856233830705e-02 4.4133553879593995e-01 -2.6101457886476793e-02  -2.3724154459195343e-01 1.4988256679854453e-01 -1.6014415142080204e-01  3.1979621789632295e-01 3.7754188282427179e-03 -1.3752276887414885e-01  -1.4450339580715771e-01 2.1392818507345546e-01 -3.2883685162159654e-01  2.1405079952619357e-01 -1.9066156730536127e-01 -2.7578372021642050e-01  -2.4912391730749411e-01 7.6860699484584710e-02 -2.9167661756109692e-01  -3.0329942016631550e-01 -1.3012037566699164e-02 -2.8741511421390864e-01  -2.6573856487409220e-01 8.4760681017644945e-02 -2.3178486701759879e-01  -7.6657472960399833e-02 -3.6893285488718641e-01 -3.7385574063332344e-01  -1.4554855039827705e-01 -3.4443686685593389e-01 -4.1266238551136136e-01  -2.3148050564620432e-01 -2.9806227183740008e-01 -4.3246867487123347e-01  3.0654953829410125e-01 4.5338063266367372e-03 -1.9648426884803094e-01  3.0367881739178498e-01 5.9937512069753243e-02 -2.2835147709702183e-01  2.7081857994107045e-01 -1.0558603010962396e-01 -2.3147228354137067e-01  1.3598996121684129e-01 -1.6372433474486614e-01 -3.8380921357515579e-01  -5.1691612251954011e-02 -3.9134144450902458e-01 -3.1326151228151222e-01  -1.5198084881259916e-01 -3.9448335753196806e-01 -3.3758950652358366e-01  -3.1663539584976486e-01 -1.7485595791309641e-01 -3.9690512776395304e-01  -7.0562527823194943e-02 -4.7946612875027317e-01 -6.9918468976694251e-02  -2.5102222259856483e-01 2.4580609277124341e-01 -5.4881745179634466e-03  -1.2468163282016143e-01 1.8702589120427729e-01 -3.7493222719010999e-01  8.8434411968337984e-02 4.6811702145431155e-01 -7.2980760744297712e-02  2.8518754288707393e-01 2.9377864720466368e-01 -1.7564752585458629e-01  2.5959766465371675e-01 3.7247076834067405e-01 -1.3293664325209759e-01  8.5327973555018935e-02 4.5069158822545408e-01 -2.7177603728983639e-02  -1.9131419946842074e-01 1.6447734183484050e-01 -2.9229457472591819e-01  -1.6832977922580494e-01 3.6577692642416748e-01 -1.0097023474395081e-02  -2.3350749940143339e-02 -3.1642917853494623e-01 -3.9615638297914096e-01  2.5472916990536047e-02 -3.3231091801939805e-01 -3.6036258864765125e-01  1.9517664794375941e-01 2.6846869273444524e-01 -3.1508727739531250e-01  1.4634100353188589e-01 2.5051762326622290e-01 -3.5386783990663945e-01  2.3297510925558540e-01 1.9477846657660364e-01 -3.0928361750293321e-01  1.8685883718521945e-01 1.4758556692347424e-01 -3.5300544401859901e-01  -2.5992604197321484e-01 -1.6972963782815664e-01 -4.4284925302454198e-01  -1.1566316679061453e-02 -4.9636334212262778e-01 -2.2933198507504547e-02  -1.9537087696436020e-01 -8.7314586751301687e-02 -4.5735611476545662e-01  -5.6831145312423005e-03 -4.0026374366314726e-01 -2.5295734359222716e-01  -7.8309219313712305e-02 -4.2566856181218271e-01 -2.2495514009681930e-01  6.8247532792070770e-02 -2.6288889174782164e-02 -4.3716711228297617e-01  -2.0905941515089115e-02 1.3407415001848210e-02 -4.4624499727787137e-01  2.8993418394125553e-01 1.5501713270818471e-01 -2.5213153105748559e-01  -2.8822867521310164e-01 -2.4168465371737047e-01 -4.2424568788365880e-01  -1.8858725186613526e-01 9.7191556765798881e-02 -3.8676549264045113e-01  -1.6841503906604335e-01 4.5343075182666413e-02 -4.2526164712706543e-01  4.5178133240770600e-02 2.8528121925665462e-01 -3.6725344139128585e-01  -1.1602496164383967e-02 -2.5307821969683580e-01 -4.2181459804021337e-01  1.7188750752528525e-01 -6.3605662373466626e-02 -3.8003690909009807e-01  1.3804242103871911e-01 -1.8997826689414597e-02 -4.0439232896222144e-01  -1.2085870580170799e-01 -7.0783436726481316e-03 -4.5646528682438653e-01  2.2608920453089010e-01 1.1738449803234231e-01 -3.2707172246733451e-01  5.8988671618469143e-02 2.2093562570146186e-01 -3.9025856854091995e-01  -2.9369019990861663e-02 1.9215301658506520e-01 -4.0059946713206923e-01  -6.2931758544781488e-02 7.7367788582921940e-02 -4.3081863904135909e-01  -1.0614537870893812e-01 1.2781672231013888e-01 -4.0990005891991843e-01  1.1892173440462928e-03 1.4838033685344237e-01 -4.1393820479996568e-01  -7.0008647782742045e-02 3.5424515244276195e-01 -1.7939269396308921e-01  -1.8349085134774615e-01 -7.3197229047408134e-03 -7.0676691957634444e-02  -1.6450709612338063e-01 1.3644602232315882e-02 -4.6946526924269816e-02  -1.5827099218815369e-01 2.7415755034019180e-02 -8.5154716674130632e-02  -1.4870626436183157e-01 4.9192049657959522e-02 -5.5632527927509064e-02  1.5856385596867159e-01 1.9484426479782477e-01 -2.5490107418289160e-01  1.7489176574020135e-01 1.4627914252593779e-01 -2.4500587930317269e-01  1.4522923914364499e-01 1.7349550784858894e-01 -2.8551422324838588e-01  1.0157533630782117e-01 -2.6083732571473067e-01 -4.2337357562592326e-02  1.8156315137692322e-01 1.6608690396843856e-01 -2.1899249963941320e-01  1.7215897594601781e-01 -1.5961629931245589e-02 -4.0257601241271715e-02  1.6615583067883427e-01 -3.9800706024187595e-02 -3.4355746858725139e-02  1.5834643320070296e-01 -3.4084792406114096e-02 -6.0981000789941620e-02  1.2805021957372442e-01 2.4789860474464981e-01 -2.3447549485233821e-01  1.4990915989242076e-01 2.4956637420985459e-01 -1.9483292287648507e-01  1.7399223114236548e-01 2.0993137929667480e-01 -2.1073215619257568e-01  7.1267818760980484e-02 -2.8719339395816657e-01 -4.7660635721580635e-02  3.6637565624522979e-02 -3.0195488752615879e-01 -5.6170748805922932e-02  1.5304984033070090e-01 2.5730733303255360e-01 -1.2570292341002431e-01  1.2508022973034905e-01 2.7518460608397072e-01 -1.0791803403658516e-01  1.6145575814249308e-01 2.3570566779781194e-01 -8.6268137395682981e-02  -2.1618533677070123e-01 -5.0123126433783402e-02 -9.0455918740456998e-02  -2.0075620126084115e-01 -3.9414961610741719e-02 -6.0489