<?xml version="1.0"?>
<VTKFile type="UnstructuredGrid"  version="0.1"  >
<UnstructuredGrid>
<Piece  NumberOfPoints="683" NumberOfCells="2049">
<Points>
<DataArray  type="Float64"  NumberOfComponents="3"  format="ascii">0.5062154804590268 -1.349378130783984 -2.2472244121157e-18  0.06330200680634801 -2.233809816079452 1.292204679666275e-18  1.090649534708418 -1.171263495925769 4.188363903099053e-18  1.559914148590851 -0.7793294670531974 6.304937214980662e-20  1.86015313600558 -0.2364133515528864 -4.395618319373341e-16  1.946774251449041 0.3702177377914475 -4.253344198272179e-16  1.757107399375948 0.9538889219829922 -8.780657277691548e-16  1.341916133764432 1.420953444525369 -8.782692203632513e-16  0.7886807271839865 1.733503888471003 -8.857058837660292e-16  0.1588540732746221 1.867692715302765 -1.323635196974736e-15  -0.4699164324171012 1.835743350723693 -1.330443289496308e-15  -1.012530168344702 1.5190198408489 -8.766141351186029e-16  -1.383933868752655 1.020628862079257 -8.808938578969364e-16  -1.523258300316228 0.4196864570407008 -4.441204083151331e-16  -1.44387959287561 -0.1861567292711856 -4.34519832474795e-16  -1.152451747961133 -0.7222723076099747 1.227679701810797e-17  -0.6853269338816369 -1.112840963561769 -1.631340398210062e-18  -0.1089167853613146 -1.32823022128269 -1.306058709935568e-17  0.7299010254702617 -2.267655687805559 1.46569609684068e-17  1.393967644829323 -2.109707084035611 -1.052995895716437e-17  1.988367815227147 -1.758441878950755 1.506152072191974e-17  2.463687196245079 -1.260288439563046 -9.488361031488967e-18  2.801815122287254 -0.6601340370662719 -4.278198809654587e-16  2.989256351833052 0.01054448453408847 -4.311900641783054e-16  2.970302900111067 0.7140294383208922 -8.636056276555061e-16  2.687035076467223 1.358792845652673 -8.755522029631054e-16  2.222862482974641 1.885352366857475 -8.596328597604573e-16  1.649106600202205 2.27155766274232 -1.30939908342364e-15  1.012856020379903 2.529740181625913 -1.324133810313963e-15  0.3465708809792403 2.66651104549063 -1.343063985641378e-15  -0.335157442369709 2.65990965809005 -1.328335137227659e-15  -1.002271682633276 2.505420058122893 -1.333357064814116e-15  -1.611633101855213 2.178520984060555 -1.345072860971909e-15  -2.108635910404402 1.69929167792993 -8.723951247151946e-16  -2.448053858948481 1.089821088231791 -9.014737026495218e-16  -2.567606531967541 0.401319743073559 -4.472956720023987e-16  -2.480782944229206 -0.2878485010114186 -4.467385482792021e-16  -2.180750283198909 -0.9082222782063296 3.754180658027078e-17  -1.733927639958023 -1.421446936803032 3.870834521908937e-17  -1.191721146895537 -1.817461623162068 1.319306476894631e-17  -0.5853545812537317 -2.088610997442985 1.250173069155083e-17  0.5218721845996889 1.644215312333766 -6.341549146998545  0.8918675085259523 1.413679097913439 -6.908180939437186  0.2648503329208098 1.485047523210812 -6.756554393664818  1.133803465094987 -1.796005341585856 -3.033985862744332  0.4849338993085602 -2.015236735303947 -2.871327789125613  0.6666173457565039 -1.974161797802722 -3.588423067517774  0.02803943573253577 1.793899261049533 -3.687099922758925  0.05398920883017346 1.707902982416292 -3.012715585909472  0.6694620137403374 1.629982236617962 -3.304312532096005  1.944952199060272 0.60897433933956 -2.047992508728332  2.031236143391019 0.2024340766856178 -1.723865766918991  2.031876787322465 0.158412503947141 -2.308320575004549  0.4912158090169301 1.609864870763865 -2.462305169785247  1.961296519337576 0.6333568223243492 -1.485766940740345  1.087970832636429 1.632999894112183 -0.6564564633964889  1.338870512469077 1.433847427025208 -1.380325946406005  0.8336007218602165 1.688519621478077 -1.227287736779797  -1.122671703275005 1.438892227088364 -0.6513740449912298  -0.653225411593756 1.721436752534934 -0.564680147684951  0.2517714857689138 1.717319200397542 -1.654508299884525  -0.2502822179100755 1.785207312265709 -1.082653089310595  0.3806666844377273 1.820113718742728 -0.7553879541558661  0.9358543260882769 1.657865157618234 -6.023912773054044  0.4336580672008568 0.8196629462811598 -7.883299387994209  0.740143086345449 1.12450407068321 -7.509130350427277  0.9437242516767645 0.6967467591694929 -7.992234358540657  -0.1215091430887077 1.859273428600516 -0.4082164509403164  -0.4956489800479978 1.841693330495217 -4.689063060140872  -1.018884723035907 1.658884504679849 -4.982693224726007  -0.9281390042488366 1.745152025453254 -4.353227039639582  -1.087059626768659 1.673761932419685 -3.674396579553018  -1.373229098938341 1.559197156998131 -4.343860098923319  -1.68629721975754 1.358035209234449 -3.822253343907646  0.801243130820818 -1.72488269158108 -1.220050656215937  0.9979571337376015 -1.82473680141466 -1.906077483019408  1.422429735544192 -1.413189458860511 -1.377536257614277  -1.548362960996048 -0.6114239853650076 -5.025909827920406  -1.355770589680119 -1.05964304157787 -4.710502663543411  -1.694563041988909 -0.74423655692138 -4.300030873732063  -1.09749070787048 -1.108435452236129 -5.276090439604074  -1.588634986569709 -1.110899870441312 -3.476148799432656  -1.880882033193594 -0.7278302311003489 -3.106149586193812  -1.817788822238551 -0.707871230384726 -3.710989433062316  -1.57319456894788 -1.211221389958077 -3.002825517561599  0.9774529971921888 1.521945941992522 -1.912309419775208  1.600773444765405 1.135424472495045 -1.952138271600826  -2.001414821256537 -0.1390044043387403 -4.020342159849577  1.475761700911795 -1.521590137911136 -2.332793939390966  -0.7726403103949078 1.645064999408283 -1.256566523919812  -1.861340381126889 -0.2190924639819304 -4.589910587132949  -0.2318193543190404 -1.966104025646219 -3.97002929860459  -0.1027288935133819 -1.918506613141561 -4.520921475195188  0.2779156883378179 -2.003295040619977 -4.12191125980454  -0.5942546854361733 -1.756093559590858 -4.510473220678345  0.372052134567815 -1.958241713199926 -1.739354599011422  0.9840973027452459 -1.823991330275988 -4.319057274144988  0.4724476594304605 -1.863903398650021 -4.909621486911784  1.084667093290959 -1.684615095884175 -5.086793013053178  -1.147728782730537 -1.51599704631789 -1.151005535385991  -1.569560852711514 -1.046610366767472 -1.083019835709747  -1.498852484724811 -1.294788071237858 -1.830915109463124  0.1511257680173668 -1.863925798555701 -1.254347668221714  1.210345906707589 1.340133896471566 -2.677231707190654  1.269321112622377 1.410062280844772 -3.536498783279697  1.298046173126518 0.9625922296615931 -7.530103539447488  -1.999686527799254 -0.4700692632874327 -2.602062113260655  -1.726137163767494 -1.025257932652734 -2.4961556389775  0.803247851725676 -1.498267700174663 -0.6137144652697294  -1.921512479222938 0.03452784689427859 -1.301781135057744  -2.050292706212774 -0.1624972645272916 -2.015017553400504  -1.964285789293549 -0.3873596080119309 -1.605775810874913  -1.993506345184109 0.3739615470888772 -1.953736171008795  1.339560330187626 -1.222704735279744 -0.6640527397283802  1.983284445764404 0.6006463733538219 -0.7021615794759938  0.06175383816000267 -1.998683373777993 -2.34401122529119  -0.4188508741552694 -1.916394153628483 -2.39514535968853  -0.1489992452108556 -2.007171684997688 -2.893164150059176  -0.3368337307678794 -1.913361639768905 -1.798763193176695  0.9728164993967849 -1.885375906072212 -2.497779055047823  1.800972941644776 -0.7942025069822459 -0.9301412652911245  1.979282464742446 -0.1876152740527875 -0.4719719309620563  2.045263862366363 0.01159552236866994 -1.13128506749181  -1.276495613188148 1.311613712200491 -1.346613245591341  -1.700398039987899 1.025989077832633 -1.992112419579113  -1.687217859833712 0.8013135885865614 -1.311145077954988  -1.104995290316029 1.537387413645681 -2.006689797936317  -1.446688866925913 1.078454419638749 -0.7745223858592508  2.000059727545594 -0.3594086433731538 -2.525613290178534  1.882305098671544 -0.7976246936903686 -3.008271354857169  2.0111006900312 -0.2614672344139919 -3.33641239700904  -1.538649722487574 -0.1191909695309973 -5.676058784121286  -1.769925735720288 -0.03994363385298912 -5.085684728360865  -1.192868938386833 -1.538612585551102 -3.389650551053722  -1.006721031768781 -1.588495165538055 -4.074538394839134  -0.7272055935749485 -1.81170983332928 -3.705935647995907  1.654219840398242 -1.235489349846173 -4.023107557100426  1.916108334928345 -0.8793727121690029 -4.584971086246625  1.858557549559623 -0.8177616767064219 -3.716092275423289  1.855604753205378 -0.8823989679907374 -2.307594144779959  1.769099423457019 -1.066339131964027 -1.704667077273411  -1.400145094146863 -1.230017478754518 -4.061874673911318  -1.664738747264637 0.5656326506257214 -0.6188164119189513  1.972268484172987 -0.4367324314358234 -1.685559755864932  -0.3969161083714362 -1.947484823584071 -3.305357586306608  0.08845477649667122 -2.021874052871653 -3.418607591699217  1.61651045759825 1.234110043694044 -0.6560360262874743  -0.5522160310305548 1.704184720029936 -1.916330953488748  -1.225529630533941 -0.6516689150901063 -5.817587227366487  -0.8789521733728566 -1.741682525729375 -2.237267207244945  -0.8968625174598297 -1.708510373184883 -1.641226678700131  1.169364824175483 1.589202545626374 -4.337759287631654  1.584817450547505 1.28667094140174 -4.103534170531414  1.566459159337072 1.385763118644593 -4.745268619800596  -0.1469807670462786 1.704894609736455 -2.41378328786332  -0.5199372359961923 1.747892733094781 -3.167706081562342  1.057616577172427 1.688760135565251 -5.208706976313183  0.6066684861293266 1.831696624043644 -4.566518071708331  2.135925025435264 0.2176919647083272 -4.188772255634307  2.188572653880778 -0.2315877284754515 -4.827849748323588  2.234631414306235 0.3560811819190364 -4.863878220704493  2.293394253679339 0.04029434005048011 -5.472672404409238  2.213464983960269 0.5344077182394107 -6.135754681954166  1.804595632472783 1.169689196458452 -6.055095292838407  2.109164209958073 0.8022962362235579 -5.329762460885393  2.004550055319485 0.7741516277319342 -6.753650596671445  1.316705525820825 -0.1497837495544731 -8.291267988233807  1.098229500483207 -0.6849535967
[...]
<PointData  Vectors="f_188215-0"> 
<DataArray  type="Float64"  Name="f_188215-0"  NumberOfComponents="3" format="ascii">-1.1969962717373668e-02 -4.8085119035878204e-01 0.0000000000000000e+00  -5.3959237572301991e-02 -3.5675886212388952e-01 0.0000000000000000e+00  1.2875481477531719e-01 -4.2980559397920998e-01 0.0000000000000000e+00  2.4638130129880167e-01 -3.2610106374533349e-01 0.0000000000000000e+00  3.1836269320180843e-01 -1.8898600070508026e-01 0.0000000000000000e+00  3.4510849038945990e-01 -3.2343082327502493e-02 0.0000000000000000e+00  3.3404701481406457e-01 1.2656140738163713e-01 0.0000000000000000e+00  2.8545215457640866e-01 2.7492288499211015e-01 0.0000000000000000e+00  1.9556575962236655e-01 3.8585143199014799e-01 0.0000000000000000e+00  8.0450188613774481e-02 4.3795090687801957e-01 0.0000000000000000e+00  -4.9598540515439195e-02 4.1712749558049894e-01 0.0000000000000000e+00  -1.7243196136474820e-01 3.5363519411794092e-01 0.0000000000000000e+00  -2.7645179410504916e-01 2.4921824093348730e-01 0.0000000000000000e+00  -3.5044144289503842e-01 1.0649149322869640e-01 0.0000000000000000e+00  -3.7770010791753234e-01 -5.7607541744738831e-02 0.0000000000000000e+00  -3.5443164357147250e-01 -2.2340685415482275e-01 0.0000000000000000e+00  -2.7644722796490878e-01 -3.6713298504654068e-01 0.0000000000000000e+00  -1.5588396486775838e-01 -4.6207618532637279e-01 0.0000000000000000e+00  3.2658414971283342e-02 -3.2784768757905175e-01 0.0000000000000000e+00  9.4931634578036300e-02 -2.7737845398342093e-01 0.0000000000000000e+00  1.3027049834382776e-01 -2.2027560463480700e-01 0.0000000000000000e+00  1.5849857918861082e-01 -1.6210840933729001e-01 0.0000000000000000e+00  1.7359833631218172e-01 -1.0197924489215629e-01 0.0000000000000000e+00  1.7506255478230037e-01 -4.6050456837459709e-02 0.0000000000000000e+00  1.7697278804813912e-01 -2.6849615567182757e-03 0.0000000000000000e+00  1.8565352806839569e-01 5.0701115181111360e-02 0.0000000000000000e+00  1.9265240812573053e-01 1.1566056514830277e-01 0.0000000000000000e+00  1.7187485918817169e-01 1.9414863798866483e-01 0.0000000000000000e+00  1.2204994732654169e-01 2.6380266650693335e-01 0.0000000000000000e+00  4.4290608588760202e-02 2.9679040132539647e-01 0.0000000000000000e+00  -3.4970007601396715e-02 2.8641850354389886e-01 0.0000000000000000e+00  -9.8431560132633211e-02 2.4101919616136067e-01 0.0000000000000000e+00  -1.3654408211895686e-01 1.8514135648438998e-01 0.0000000000000000e+00  -1.6297728895291669e-01 1.2712418295609165e-01 0.0000000000000000e+00  -1.7610212465353720e-01 7.9992196218417563e-02 0.0000000000000000e+00  -1.9646965533255506e-01 3.5802618223591598e-02 0.0000000000000000e+00  -2.1896112255318889e-01 -1.9557559157960296e-02 0.0000000000000000e+00  -2.4245994417080044e-01 -9.5787888938062893e-02 0.0000000000000000e+00  -2.4691288655206137e-01 -1.8795323714639756e-01 0.0000000000000000e+00  -2.1117466774731181e-01 -2.7037526991931699e-01 0.0000000000000000e+00  -1.4209267538415266e-01 -3.3371496499823095e-01 0.0000000000000000e+00  1.8321638849122395e-02 3.8404263033647956e-01 -4.3315599544644301e-01  6.1560921104978829e-02 3.3391097705273148e-01 -4.7382611521039147e-01  -4.0969277120124464e-02 3.3140450881963135e-01 -4.7042934118103175e-01  1.8615521271634103e-01 -3.7422319867842962e-01 -1.9544085146627244e-01  4.3291040418701042e-02 -4.4360797830679644e-01 -1.8830562142174950e-01  9.5938518613943369e-02 -4.1510230635256234e-01 -2.3907464355737731e-01  2.6610815310852586e-02 4.9995028671903885e-01 -2.0656764374235267e-01  4.3813337406413418e-02 5.0034389763521925e-01 -1.6718096732835433e-01  1.5075187735621071e-01 4.7042935984194845e-01 -1.8091497556963634e-01  3.4753998738003583e-01 1.1656401879259856e-01 -1.2190785548947775e-01  3.6519126228834814e-01 6.4331678750168186e-03 -9.8440270217257736e-02  3.7379627308273472e-01 1.8517184481516531e-02 -1.3253875519292868e-01  1.2475712793630152e-01 4.7281983079547329e-01 -1.4647291758140835e-01  3.4323052779681396e-01 9.8805454143976526e-02 -8.9342682526654782e-02  2.1904994548544660e-01 3.5524455633742624e-01 -4.1538245933149441e-02  2.5335082152039773e-01 3.2181612202269833e-01 -9.1729453118669285e-02  1.7121886000908507e-01 4.0829449998946560e-01 -8.4004334314091794e-02  -2.0788742460744994e-01 3.2351170023254439e-01 -3.1527152024049668e-02  -1.1056302861185532e-01 3.9821998671974207e-01 -3.3631713740242659e-02  7.0782808580500123e-02 4.6521333530426001e-01 -1.0813770015596177e-01  -3.1688097069935042e-02 4.4108337448243856e-01 -6.8664408540557484e-02  9.3497648629500454e-02 4.3829155321282215e-01 -5.0918384003145058e-02  1.0636860405301228e-01 3.9926440681070441e-01 -3.9668781309543882e-01  -3.5889060431783658e-02 1.6244333916744705e-01 -5.3246830944898882e-01  1.9062557083955493e-02 2.5702522825270097e-01 -5.1704868706638185e-01  4.3241549381170641e-02 1.6771682214187114e-01 -5.3638332626399510e-01  1.5368507410955835e-03 4.3913385975045871e-01 -2.8455630938763962e-02  -9.2547303173908649e-02 4.3322008823570030e-01 -2.9359089483933115e-01  -1.7948766347350575e-01 3.3158914733045586e-01 -3.2476041323603499e-01  -1.5067096811049988e-01 3.9055323310198281e-01 -2.6811475026690496e-01  -1.6176713369384382e-01 3.8772536980648709e-01 -2.1697377833443743e-01  -2.1386811132254671e-01 2.9931933075550032e-01 -2.7374797973375470e-01  -2.4979645746884535e-01 2.4116581303178183e-01 -2.3663322483398924e-01  8.4812733340916088e-02 -4.4191164289098300e-01 -4.3550208938608372e-02  1.2886910022938661e-01 -4.0812163109171395e-01 -1.0476197315963333e-01  2.1438313561633646e-01 -3.5399643853142942e-01 -6.1578255846358114e-02  -3.4605831135458986e-01 -2.4049078595173776e-01 -3.8897971545136195e-01  -3.2043208038311960e-01 -3.2136320924906386e-01 -3.6557622834609182e-01  -3.7232163185772715e-01 -2.5402256990537325e-01 -3.2672939620107033e-01  -2.6936340472307252e-01 -3.3459974494968148e-01 -4.0937258553206951e-01  -3.6080023010362322e-01 -3.1185552667003635e-01 -2.5500777612259817e-01  -3.9328151016239071e-01 -2.1869175414083791e-01 -2.1778586243600326e-01  -3.9071777379247469e-01 -2.3488775870470707e-01 -2.7350704538756282e-01  -3.5170410322889389e-01 -3.1780010566642486e-01 -2.1160713841317405e-01  2.0162682138523064e-01 4.0288782367250903e-01 -1.2587278966572804e-01  2.9654250453765929e-01 2.6079821300794942e-01 -1.2303774624000345e-01  -3.8959958971580988e-01 -1.2412836170797176e-01 -2.9141129218311379e-01  2.4564443256540494e-01 -3.2854520950547572e-01 -1.3970678957590596e-01  -1.3351482624085742e-01 3.9036798064976364e-01 -6.8549941094036657e-02  -3.7441120895396618e-01 -1.5211945149841535e-01 -3.4380409295720138e-01  -8.6383447310544509e-02 -4.4303328592296126e-01 -2.8195996631150771e-01  -5.5058961714450599e-02 -4.2837370947319542e-01 -3.2742853777145819e-01  2.2025041162881797e-02 -4.2804687664827523e-01 -2.8584590544610594e-01  -1.6138312887863673e-01 -4.2091084368892201e-01 -3.3719684483994505e-01  2.0242046339965020e-04 -4.5996155653036713e-01 -9.0847022284769305e-02  1.6528632071310104e-01 -3.6998904606996569e-01 -2.8734933800802731e-01  6.1849376380377068e-02 -4.0241068242709072e-01 -3.4728789502840202e-01  1.8095595175062887e-01 -3.4357835165330691e-01 -3.4237318678152784e-01  -2.7978527850314500e-01 -3.4826281610518905e-01 -4.4666090904878900e-02  -3.4450164734408084e-01 -2.3471177063808674e-01 -3.6097774948436676e-02  -3.3023722755999796e-01 -3.0438273924535153e-01 -1.0882285303096040e-01  -4.7114990406595274e-02 -4.6985656010354770e-01 -4.5712421253295520e-02  2.4834823895403746e-01 3.7386606322137300e-01 -1.5689018162846879e-01  2.4901745756136984e-01 3.8060593096117462e-01 -1.9284534531031397e-01  1.1142794497033541e-01 2.4499023961476413e-01 -5.0834338778903765e-01  -3.9616796305490182e-01 -1.4220332285942711e-01 -1.6935754595919111e-01  -3.6988478565320759e-01 -2.6257118588893869e-01 -1.6614244967692593e-01  7.9985515911572186e-02 -4.5291858916793820e-01 -1.8066361288190703e-03  -3.6992132465137462e-01 1.4974077655695283e-02 -5.2777659008191070e-02  -3.8156505580421424e-01 -4.4926298241067843e-02 -1.1501485196679351e-01  -3.7731638247635474e-01 -8.3221109898886592e-02 -8.0981431290163969e-02  -3.5819716523373957e-01 7.4416350827222463e-02 -1.0125741657078426e-01  1.9967529429551711e-01 -3.7530120368595909e-01 -1.1717621710192059e-02  3.3843780143537633e-01 5.8574194053842066e-02 -3.5080468397986071e-02  -5.1786002974730821e-02 -4.6953244113494536e-01 -1.4673663495621578e-01  -1.4687387407808616e-01 -4.6375169597914961e-01 -1.5303466141354322e-01  -8.4814769097712697e-02 -4.6515099399018434e-01 -1.9254231311577594e-01  -1.3501685516103251e-01 -4.6079769767283374e-01 -1.0135608997944075e-01  1.3680993430764835e-01 -4.0228820083316869e-01 -1.5655453199657610e-01  2.9530997314092045e-01 -2.4790490551387079e-01 -3.6292599541578541e-02  3.2972121735406978e-01 -1.3909194449340054e-01 -1.5259862736595268e-02  3.5126562862034005e-01 -6.1588075233091108e-02 -5.7369998029859294e-02  -2.3387625661785694e-01 3.0471552211463593e-01 -6.4653510687657220e-02  -2.8916082243623137e-01 2.1949685271730229e-01 -9.6666083856958018e-02  -3.1623441371531419e-01 1.8190774500924553e-01 -5.4419122312586402e-02  -1.7766376052886729e-01 3.6003632590130097e-01 -1.0231915391062116e-01  -2.7958001108837294e-01 2.4195404179745655e-01 -3.0660048170042399e-02  3.8471304018348956e-01 -9.3797695985903512e-02 -1.4409740053846054e-01  3.7384881514807505e-01 -1.7938881736390516e-01 -1.7876262672255941e-01  4.0008878808441317e-01 -6.5199735860303726e-02 -1.8759372009086461e-01  -3.1858759686041394e-01 -1.4066189521095940e-01 -4.2602546533214242e-01  -3.5193995865626210e-01 -1.2107598365785724e-01 -3.8105127429875169e-01  -2.8810353941376093e-01 -3.9082225326044573e-01 -2.4458595402699260e-01  -2.4999780107047226e-01 -4.0134575477047502e-01 -3.0426870425808250e-01  -1.9285517404306332e-01 -4.3373347169946791e-01 -2.6694878833407348e-01  3.2651004190031774e-01 -2.5884688510372594e-01 -2.4466543160761026e-01  3.6413629228028421e-01 -1.8240898938015973e-01 -2.6812453848185108e-01  3.8183303858302337e-01 -1.8144175274737426e-01 -2.1599099612682213e-01  3.4774152762508204e-01 -2.0688032252205923e-01 -1.3377161561014261e-01  2.9828574648374817e-01 -2.6033676784263582e-01 -9.0071794187778831e-02  -3.2772575236777030e-01 -3.4260420563333993e-01 -3.0673356776831967e-01  -3.3971228517509655e-01 1.2499484694235863e-01 -1.4124048813832958e-02  3.5955473123492343e-01 -1.3488763126103737e-01 -9.0889162187651015e-02  -1.2976000565234477e-01 -4.5679899660569084e-01 -2.2865129490428210e-01  -2.6732542208232291e-02 -4.5445267137255962e-01 -2.3261098861922772e-01  2.9742743169340785e-01 2.2744896396609587e-01 -3.6346168322957000e-02  -7.6685390558324990e-02 4.3405632780989978e-01 -1.0702741135814819e-01  -2.8441717647863107e-01 -2.4902542799211411e-01 -4.4482183892570359e-01  -2.3324974636993018e-01 -4.2564640276353749e-01 -1.4298905431036130e-01  -2.3637179271557310e-01 -4.0799284858134521e-01 -9.0266259630529561e-02  2.1315131876361776e-01 4.1417136661520593e-01 -2.4616072079161805e-01  2.8610073364462224e-01 3.2368513772670865e-01 -2.2578804025406496e-01  2.6421984691811379e-01 3.4424672610204654e-01 -2.7297503027756415e-01  6.8463414543185322e-03 4.8208445662061039e-01 -1.3862539405985916e-01  -6.1456299433929579e-02 4.6958485178275949e-01 -1.7755062988691647e-01  1.6572121030288778e-01 4.2113888942834082e-01 -3.2048951846891011e-01  1.0553785317334131e-01 4.6834526769095736e-01 -2.7095876357649584e-01  3.8601866496160819e-01 4.8553756845436766e-02 -2.2617271166798864e-01  3.8741282538646221e-01 -4.3272642566840470e-02 -2.6900151139557932e-01  3.6659328685122444e-01 8.7079342096049658e-02 -2.7051595823924357e-01  3.6503119219158214e-01 2.9731433614920692e-02 -3.1720312990255450e-01  3.1913942466782369e-01 1.4654378317881167e-01 -3.6960389847048564e-01  2.5780272443937385e-01 2.8574646847878488e-01 -3.7598355769275016e-01  3.3169745480584323e-01 1.9433423087852711e-01 -3.0936784172702464e-01  2.5923757899305189e-01 2.0142166197116701e-01 -4.2391671466416403e-01  1.2645123450591714e-01 3.7085430659903940e-02 -5.0230896010357584e-01  1.4084044060877493e-01 -1.0668080792756449e-01 -5.2184327386290252e-01  6.9895856032742926e-02 -3.9155465455772018e-02 -5.1807346992969372e-01  -6.8874594894047486e-02 4.6794106901283172e-01 -2.2851996828198412e-01  -1.7114045625191598e-01 3.6910124663594140e-01 -1.5919892558116686e-01  2.7789577311901942e-01 -1.8534619504927913e-01 -4.1634122753147335e-01  2.9596768190388922e-01 -6.7811554522986456e-02 -4.3160483718678067e-01  3.3808433191867715e-01 -6.2780045736254522e-02 -3.7400942707698165e-01  3.5946765983925305e-01 -1.1849899048640920e-01 -3.1648091286756042e-01  -1.0327253958985259e-01 4.2963767111535905e-01 -1.4060624858757537e-01  4.0133857508346671e-01 -8.4273118649382972e-02 -2.2480079496598210e-01  -1.0792896745883615e-02 4.5626813528837090e-01 -3.1578683249196488e-01  -5.8336215989927050e-03 4.8309070825268685e-01 -2.5962271590566210e-01  3.3523859265961786e-01 1.8525859621702057e-01 -1.5650274783179732e-01  -3.7111221013102702e-01 -2.0207803094384864e-02 -2.9246761000099614e-03  -1.6033640243848199e-01 -4.4686567390208071e-01 -3.7264162991657739e-02  -1.7236178332984023e-01 -4.5278307287737574e-01 1.0329298309752833e-02  -2.5119064476247571e-01 -3.8761941607198891e-01 2.6042639773466800e-03  2.2042209867332407e-02 4.2985316411060298e-01 -3.7417072587089212e-01  -9.0529455181178844e-02 -3.9004359920697218e-01 -4.2966745140831331e-01  -1.9031993526151175e-01 -3.4605960490494658e-01 -4.4621421952538437e-01  -1.1082993487894555e-01 -3.5115814343467899e-01 -4.6326861539081338e-01  -1.7580959796772588e-01 -3.9219348527324926e-01 -4.0173784794397160e-01  5.6236131364649763e-02 -4.3979067959442014e-01 -1.4080714035888184e-01  -1.7638805306313782e-01 2.4077067157672774e-01 -4.4136582440909072e-01  -1.5530287117294145e-01 1.5898130130796384e-01 -4.9442508895611270e-01  -2.1954620293255467e-01 7.3320963603600645e-02 -4.6250210283240506e-01  1.7428558627506008e-01 -2.8888230235683915e-01 -4.4484452039118322e-01  7.4247662806493253e-02 -3.5839274588409642e-01 -4.4189758108024241e-01  5.9903709028616928e-02 -3.1204589609492872e-01 -4.8173349270867472e-01  -2.4134289365940459e-01 2.7905969350358945e-01 -1.2892534848760326e-01  1.2815145354277041e-01 -3.5710205390864513e-01 -3.9758968067229516e-01  -1.8700423844060132e-01 -1.3400025866902598e-01 -5.0765354285688280e-01  -2.1907628594029316e-01 -5.4153427719609716e-02 -4.8845062643062453e-01  -1.6657353821548562e-01 -5.2984455679562739e-02 -5.1835626980687044e-01  -3.0260330392096690e-01 1.6598094162473426e-01 -1.5745369196977124e-01  -2.5319964087806851e-01 -1.7185966582558437e-01 -4.7444245210713820e-01  6.1407689603852136e-02 -1.3777337186882085e-01 -5.3035693763457514e-01  -3.0407377825163978e-01 -3.7316131768876154e-01 -1.7652644296470654e-01  -2.0303524769964920e-01 -4.4220163424826259e-01 -2.0000947063483404e-01  -3.0369653059311646e-01 1.0407675480072062e-01 -2.7835687973519518e-01  -3.0433896630447488e-01 1.2607799054107086e-01 -2.2347430000896432e-01  -3.4627354802813826e-01 8.8623306273405804e-03 -2.7659065018990803e-01  3.7929895028470045e-01 3.1201439740115980e-02 -1.5857624514696997e-01  3.7299147709449681e-01 8.3278887774783386e-02 -1.9168078195662019e-01  -3.8290582386638766e-01 -2.0524256203539350e-02 -1.5446168465393881e-01  -3.4452944572206917e-01 9.6587249217224835e-02 -1.3855305591079353e-01  -3.5880867812066214e-01 2.8747047280704909e-02 -1.9224483948140417e-01  -3.7297088647220739e-01 -1.0666648060030866e-01 -3.1572159334968534e-02  -3.6391356838526784e-01 -1.8007617964599534e-01 5.3710068276729035e-03  -3.6442364539366362e-01 -1.8542965408046325e-01 -7.6256750386808625e-02  -3.7931477724892265e-01 -1.7107322957731722e-01 -1.2210822832983746e-01  1.0856770000523022e-01 1.3752349663592389e-01 -5.2008963390381768e-01  1.8394647565710770e-01 7.6753152138765254e-02 -4.9549308016909471e-01  -1.8672795058554201e-01 3.0475501607531694e-02 -4.9693305247137975e-01  1.6429385764217064e-01 3.4538618206846722e-01 -4.1669830491967880e-01  -2.4950731670421411e-01 2.0569953921070516e-01 -3.2301933254550536e-01  -2.3308457332249735e-01 2.1381751465848853e-01 -3.5669766099887190e-01  -1.9001710490673351e-01 2.7436975523086099e-01 -3.8515960483242090e-01  -9.8267986648329197e-02 3.9319133333869927e-01 -3.6290557811544327e-01  -2.7229106646446832e-01 1.1674195384979268e-01 -3.5778746768677716e-01  -2.9313043920973014e-01 9.4782389357515484e-02 -3.2757750269365521e-01  3.1247839899738500e-01 1.9221329578293136e-01 -7.5645934650596172e-02  3.0796333908247292e-01 -2.8244402413112590e-01 -1.9970340045295790e-01  -6.2876066049523838e-02 -4.7971021940931152e-01 4.5314732824176330e-03  1.4947591012880779e-01 -4.1202671320203377e-01 -2.3523429951244960e-02  3.2588186669028896e-01 2.3401039796405962e-01 -1.9596174086591980e-01  3.3790714788550574e-01 2.0731776838922339e-01 -2.4634214262245765e-01  -3.1974267515456373e-01 -3.0319510642073616e-01 1.0075180340464406e-02  3.2411761245169290e-01 -2.5468831886341198e-01 -1.6314895309392127e-01  1.7546818265483755e-01 2.9195919034655099e-01 -4.4759807718285699e-01  2.3311149947986282e-01 -1.8397697336507060e-01 -4.6169295790890269e-01  1.3560031381141543e-01 -2.1837088056541906e-01 -5.0383366273158248e-01  -2.5610684285650015e-01 -3.7949326513351267e-01 -3.5954910666242335e-01  -2.7139526296361294e-01 -2.9209012682426313e-02 -4.4115654452881187e-01  -3.0622645569852047e-01 -5.2094254037175899e-04 -3.8518443826817278e-01  -3.6318546810072611e-01 -1.3144955462306540e-02 -2.4031662640178397e-01  -6.6358948329148681e-02 -4.1359568290564658e-01 -3.8022318623046036e-01  1.3740131920037096e-02 -3.9600048251468206e-01 -4.1115145195999081e-01  -1.5937556744358101e-02 -3.6749524383870819e-01 -4.5556513926946562e-01  -7.8246941653976956e-02 3.6369629850651664e-01 -4.2808312755803068e-01  -1.1292661969716827e-01 2.7864515868261558e-01 -4.7546929789384268e-01  -3.4464757721164663e-01 -2.6126836564301023e-02 -3.3175316390905885e-01  -6.0954307871230698e-02 2.5822709314260150e-01 -5.0499198459031824e-01  -1.9022668930394679e-01 -2.8406899651817136e-01 -4.7783152038689702e-01  1.8917999299735765e-02 -4.7108459782390227e-01 -1.7527648135901908e-02  -2.4395404723411224e-01 1.2634159559823183e-01 -4.0061368260303543e-01  2.3658040309517520e-01 -3.3699207565885625e-01 -2.4559980687845345e-01  -2.5077580439715758e-01 2.4500793760157519e-01 -1.8104412081708662e-01  1.8776185126615449e-01 1.5928459661312055e-01 -4.8955775462593887e-01  4.0143215111947839e-01 -1.6020792487197288e-02 -2.0460051766375237e-01  -2.6415741406685006e-01 1.8600548039810083e-01 -2.8375857809603322e-01  -3.3540566780959062e-02 -1.3547418134450909e-01 -5.3303001545279638e-01  -1.0599336099204644e-01 -3.6072126155866004e-02 -5.3816006932376714e-01  -7.7637533774693951e-03 -5.0118701182006196e-02 -5.3506046186517386e-01  2.9312260999680068e-01 -2.4555120434062430e-01 -3.3671373380521291e-01  2.7026326689536534e-01 -2.9472777208747636e-01 -2.8904952650367682e-01  -2.1301967745273026e-01 3.0860529397477315e-01 -2.0194848657422707e-01  -1.1870561287257661e-01 -1.3572829810664269e-01 -5.2807361012247789e-01  -7.2539827864201961e-02 4.7906453016571447e-02 -5.3721812373091482e-01  -3.9706729557940007e-01 -1.1233243972146091e-01 -2.2201888785767615e-01  3.0785929506592485e-01 6.5885087861007552e-02 -4.1076834723457484e-01  -1.4009043622803424e-01 4.7119359750264385e-02 -5.2207489086688519e-01  2.6148430488943480e-01 3.2459482811022844e-01 -3.2294637979065349e-01  2.0419804252382939e-01 3.6574263195278783e-01 -3.6044780344773952e-01  2.2813048511910222e-01 -2.8813222419033352e-01 -3.8646256630973758e-01  1.6890919517024963e-01 4.5392408121509981e-01 -2.1844965435613128e-01  1.8783857729813230e-01 -1.5188854912725613e-01 -5.0115402965935407e-01  2.4726093445002900e-01 -7.6834672709084020e-02 -4.7574182483232325e-01  2.0430642053738232e-01 -3.0006735458742245e-02 -4.9899318803144860e-01  1.8354148980254975e-01 2.3639652211573