<?xml version="1.0"?>
<VTKFile type="UnstructuredGrid"  version="0.1"  >
<UnstructuredGrid>
<Piece  NumberOfPoints="616" NumberOfCells="1833">
<Points>
<DataArray  type="Float64"  NumberOfComponents="3"  format="ascii">0.3350990628161807 -1.394305299275855 -1.923498867633124e-18  0.3836554891474964 -2.495562236008686 -1.262995515745096e-18  0.9867833830300119 -1.174265695874273 -1.775699639119884e-18  1.497468953001703 -0.7171927433111172 2.409539199609199e-18  1.792508994058648 -0.09914951212519309 -4.409903168177625e-16  1.809698310653301 0.5814068352265126 -4.404174886408049e-16  1.538054680920816 1.212247933473507 -8.83690772269195e-16  1.039490403189695 1.701592312754497 -8.900348299601086e-16  0.4077890767981865 2.027956819689039 -1.31515770778987e-15  -0.2879608507554814 2.136087061452268 -1.32227445536401e-15  -0.9427079768658216 1.933082001997158 -8.840865653036759e-16  -1.44131673919277 1.450200335409336 -8.720590881283372e-16  -1.696742207181897 0.8038908492633741 -8.754098504564135e-16  -1.696411303764271 0.1120811262665411 -4.20946700626267e-16  -1.440822148478502 -0.5252150128745121 -4.362203923669667e-16  -0.9668847114810558 -1.02383517097487 7.901486530789249e-18  -0.3500199564995801 -1.325489898124193 9.389837312660003e-18  1.114143310805239 -2.370011520372608 1.036192199476738e-17  1.775692522618199 -2.027897012584201 2.285426712160933e-18  2.329083247533212 -1.529110389426556 6.755988957649869e-18  2.733947508270272 -0.9005340711002164 0  2.954997275412247 -0.1871500052890625 -4.39047361722039e-16  2.960710961008007 0.5675308396944342 -4.590307630265007e-16  2.713278385453274 1.284781162185498 -8.832103255819167e-16  2.235857192560319 1.866713585851532 -8.822639992722423e-16  1.627880859481624 2.296141457399517 -1.246462432867907e-15  0.9607169183346039 2.595725551187426 -1.298286872809348e-15  0.2627042481869273 2.811664858493473 -1.311384779191098e-15  -0.4757233564617895 2.884270908641049 -1.328008757291446e-15  -1.19246842871682 2.679717357194191 -1.283489351709805e-15  -1.784697938430569 2.225686438067192 -1.314051625198827e-15  -2.206294189242564 1.620169396728254 -8.791447766607002e-16  -2.454540449866944 0.927305714113031 -8.770812730514678e-16  -2.529573522008789 0.1976439333648938 -3.711986201638308e-16  -2.383547969502627 -0.5173096388003325 -4.146375859608963e-16  -2.08679587772161 -1.181451032364976 2.723011112803368e-17  -1.63126557414243 -1.749293544468087 2.091997243498252e-17  -1.033199897258401 -2.166677167698579 5.912256169013353e-18  -0.3486622677879678 -2.416701369567326 1.130989414144483e-17  1.552006432991553 -1.332909927330738 -1.316715558980285  0.9052442849470597 -1.514481624096939 -0.6888496952982115  0.8777730063747223 -1.827676158590915 -1.402767124414006  -0.9850787914552963 -1.960909928172067 -1.886044268821881  -0.9997110035496217 -1.773873589793985 -1.262473333018136  -1.579569205515841 -1.522609440593536 -1.733089473360721  -1.347120826061148 -1.325811582386256 -0.8808292027844429  -0.6316938912869814 -2.106048553709711 -2.310865318308045  -0.8825977524498128 -2.008802513396202 -3.081863329064499  -0.2296605710257269 -2.241294232121358 -2.822402694942763  0.6623881038907231 2.061246383000151 -0.7471510323269469  -0.009116890211316522 2.184962837009726 -0.5466264902014222  -0.6603565196598499 2.11511261374889 -0.5864640736718364  -1.214702401262769 1.812170737955763 -0.6878436138724051  -0.8589064290991618 1.960974447211602 -1.196561798038107  -0.1891031754441961 2.132388962723931 -1.246629493865786  -1.499333812422048 1.50171720964044 -1.184519151500659  1.786776875280931 1.035902642749002 -2.588583843231567  2.06663439749699 0.6137508302859728 -2.232053611453571  2.045213086818846 0.4421697253565288 -2.813059447865023  2.201459347997714 0.01229164842653961 -1.280151954636892  1.896113097287351 -0.5841000197103009 -0.7409166129441594  2.061978771850503 -0.6621859619324744 -1.57238730625667  1.955238099368632 1.018407193228875 -1.745997039258678  0.1662643434116091 -1.744957741680429 -0.7809478017552984  -0.6496841940040013 -1.604519038451772 -0.6735341903655017  1.435602664606835 -1.106097544006115 -0.5841320923793191  -1.246728177882579 1.663205538618458 -1.710173563979839  -1.70242331618724 1.241326455259187 -1.882478723756487  -2.1670905464204 -0.5292335851946434 -1.867734389289182  -2.104115298898429 -0.2855975509384996 -1.297681522294887  -2.215344922560528 0.03772274138133884 -2.065886384955674  -2.079632740090369 0.3018258883586436 -1.261851150950748  -1.08985586424172 -1.71748000345083 -4.377602247099235  -0.9845772305194 -1.495531775734378 -5.031887544269237  -0.6545940880051139 -1.857357310949129 -4.727367457692795  -1.268060658939276 1.647103450197215 -2.316648605958082  1.336635509243939 -1.845380592116023 -2.130808652295712  0.6890906303322342 -2.16602006454675 -2.172526649511989  -1.539246023614193 -1.24283575099066 -4.406124071363349  1.663040785310532 -1.596840714977019 -3.035740623245787  0.9712222022388376 -2.168642088188527 -2.914698031449362  1.831114562655946 -0.9406278071797896 -4.60920924209357  1.951343732147396 -0.4242808441959685 -3.747729837717839  1.771311227872451 -1.216382916591746 -3.727487796622337  -1.330567893561108 0.7459186921838282 -6.222309132953115  -0.960566865945459 1.327828176472957 -6.286499989501667  -0.9643601537305633 0.8900707164756467 -6.736196373352792  1.56421070264375 -1.513876233045858 -4.241553713315838  -0.9157976636417409 1.85384717780896 -2.829839783623147  -0.2524627556138442 1.957513596648811 -2.546154696937647  -0.4946975833859733 1.96716643143767 -3.537240250298354  1.518766762685662 -1.531072078790551 -4.922638212742248  -2.063904255382446 0.7088770889909408 -2.352246616426482  -2.243303586240954 0.2270979114805762 -2.721520812323449  1.863203057006369 -1.246600028303405 -2.076780904571994  -1.780072429791198 0.1033107915249203 -5.27951826405402  -2.060447678399465 0.1452639892992417 -4.607852700022071  -1.980795911066707 0.6791536495609518 -4.808554285565987  -0.6839532886504214 1.914670270665061 -1.920016348991683  -1.535573840824938 1.526894323804994 -3.046104764383384  -1.686084475651817 1.223551567731432 -0.6116347957016647  1.368328813729293 1.396875713141926 -2.996638583440329  1.373659278005746 1.406573703649426 -3.693866735262881  0.8209894994014437 1.702524165050416 -3.263275820653856  -2.090508015651937 0.8570955169787737 -3.052921076769124  1.017160846886838 1.727820708961322 -4.333912117488238  -0.06930756550631872 2.011430856141657 -1.999357398030953  0.5010542734636202 2.014619120448806 -1.552745604829407  -0.4048633587724402 -2.044347112481872 -1.441312131523276  -1.589756490340376 -0.7975244169958157 -0.5765070513482836  -1.919316633440424 -0.8769530048912183 -1.316313712830034  -2.033861974353301 0.6483486275265734 -1.763118793641469  -1.895998702751176 -0.2318794788285181 -0.684235739551186  2.075925603229316 -0.2496453158519484 -2.89554237974874  2.007264260724932 0.2586755926666806 -3.507233164038265  -1.886898602391158 0.8940722003614924 -1.20398806119706  1.972615208953967 -0.9087882446494705 -2.903429481149  -1.798222373662195 -0.4932623211567371 -4.812202686744556  -1.702031219250922 0.7065511683138708 -5.463942763621959  -1.328535561803788 1.277307212809101 -5.669068896218116  1.258023364660251 1.722223613086093 -0.5463309768570258  1.165676710198938 1.829840871956241 -1.230839221682022  -1.912204473444278 0.5421690000380328 -0.6945291025269511  0.3305564102334287 -2.287326948250137 -2.676802163565291  0.3295607509355433 -2.305298718371592 -3.347871562609713  -1.77155115427019 1.211482999138425 -2.496904922646932  2.062431306633417 0.1772832384247728 -0.6062520358555218  1.932757375423116 0.8758017100138062 -0.5662673373347175  2.138672205192511 0.6329588774965951 -1.178791302753119  -1.777716797533037 -1.215194705999688 -3.49673431036275  -1.461649543506824 -1.626583930039222 -2.983610276824225  -1.820873826559117 -1.30695390187938 -2.547903000077467  0.09544620609006424 -1.005678052267289 -7.165602758510644  -0.4036341843213557 -0.9458606801904027 -6.774026202941187  -0.2469851961164863 -0.567154176566404 -7.31548516890902  1.416925949071744 -1.830987300504888 -3.694825799898683  -1.219611534093138 -1.836149062236629 -2.454923228491332  1.640115178497333 1.427999770204425 -0.8006903465929271  1.787571124160343 0.9420867821070943 -3.419954594228866  1.519163633182366 1.422162667150898 -2.180696102399467  -0.3265868892605609 -2.211232016451019 -3.353921096825073  1.581298803964694 1.505464366430786 -1.50704510875205  -0.666860036399927 -2.06442574491418 -3.968121255106178  -2.005487907477172 -0.9989744745815659 -1.977535560544056  2.18796726542078 0.5021977356609666 -1.709641540630479  2.185235351506329 -0.02076648829403254 -2.131554644723156  -0.7992999242864496 -0.5482033886138439 -6.704934350887222  2.093877922933137 -0.627598210767772 -2.26512621750758  -0.1048278051316302 0.1219242987171182 -7.667860428788877  0.01139809609577409 0.7177689976578433 -7.643510129957982  0.4700537849980627 0.2685372160778125 -7.902080146624015  -0.5826009287561071 0.5109522796132063 -7.299586856512322  0.3327736139272962 1.914274980571518 -4.766230434973109  0.8176963524856025 1.853354447596106 -5.175187084148803  0.3515147690983967 1.907184819799865 -5.541019417465247  -0.1519685905346486 1.846789904915574 -5.876861111414896  -0.1918664140121346 1.909951671270961 -5.158585612520289  -1.343295019869718 -1.005050062638376 -5.188203025520775  -0.03791850020876399 -2.215441586535447 -2.200387361048358  1.182850878890193 -1.921521049720821 -4.280226538390102  -2.155067024862725 0.6426793240823111 -3.949048664508135  -1.854478853879025 1.306064036127864 -3.815371046060017  -2.197540879727113 -0.5047114350088149 -2.610835793304253  0.1786685460949247 1.599324392560567 -6.95268818862268  -0.3429786896956868 1.676613042312087 -6.364031710901192  0.2956763546029435 1.848228351198926 -6.295598911584586  -0.01673124164729843 -2.261208615320326 -3.856034304692452  -0.9037760927663373 -1.05769404423
[...]
<PointData  Vectors="f_4782492-0"> 
<DataArray  type="Float64"  Name="f_4782492-0"  NumberOfComponents="3" format="ascii">-3.8830061490524787e-02 -3.7684711107520869e-01 0.0000000000000000e+00  -7.4564129004100694e-03 -2.5482397218577002e-01 0.0000000000000000e+00  9.1729263292050889e-02 -3.3693123941360481e-01 0.0000000000000000e+00  1.9749614146779051e-01 -2.4542855859273940e-01 0.0000000000000000e+00  2.6037011754579287e-01 -1.1871861586480824e-01 0.0000000000000000e+00  2.8200053583155521e-01 2.8106191709239517e-02 0.0000000000000000e+00  2.6449773441037716e-01 1.7517462420356739e-01 0.0000000000000000e+00  2.0694656706317535e-01 2.9467283748254830e-01 0.0000000000000000e+00  1.1385060505943348e-01 3.5297125848287125e-01 0.0000000000000000e+00  -6.4073455290895240e-03 3.4623314983623904e-01 0.0000000000000000e+00  -1.2995307687096019e-01 2.9900755953861846e-01 0.0000000000000000e+00  -2.3954335922946673e-01 2.2294296790016313e-01 0.0000000000000000e+00  -3.2252683803948012e-01 1.1603951322458253e-01 0.0000000000000000e+00  -3.6021325655066172e-01 -1.3876913648012834e-02 0.0000000000000000e+00  -3.4786523956566773e-01 -1.5287398948290190e-01 0.0000000000000000e+00  -2.8227159083495307e-01 -2.7320973549813715e-01 0.0000000000000000e+00  -1.7201653631204758e-01 -3.5556674383869974e-01 0.0000000000000000e+00  4.9984786921037340e-02 -2.2508016455360783e-01 0.0000000000000000e+00  9.4282125763388902e-02 -1.8516718030854076e-01 0.0000000000000000e+00  1.2210964639430893e-01 -1.3501456141825147e-01 0.0000000000000000e+00  1.3777353967083797e-01 -8.4580744461363905e-02 0.0000000000000000e+00  1.4663013651681231e-01 -3.1020544994494071e-02 0.0000000000000000e+00  1.4920513571231189e-01 1.0951840001234562e-02 0.0000000000000000e+00  1.5717054319844956e-01 5.4688142399129003e-02 0.0000000000000000e+00  1.6416130048372116e-01 1.2304265873078497e-01 0.0000000000000000e+00  1.4626694007652036e-01 2.0014425620157802e-01 0.0000000000000000e+00  8.8460947111206514e-02 2.5793899415429333e-01 0.0000000000000000e+00  7.2700917710584890e-03 2.6393670772804745e-01 0.0000000000000000e+00  -5.9111108700225554e-02 2.2856242557928874e-01 0.0000000000000000e+00  -1.0730832186258514e-01 1.8883264794044305e-01 0.0000000000000000e+00  -1.4847758004432590e-01 1.5650474567388092e-01 0.0000000000000000e+00  -1.9674645307945596e-01 1.1448411558864519e-01 0.0000000000000000e+00  -2.3775914758319144e-01 6.0777866310493006e-02 0.0000000000000000e+00  -2.5857438127626908e-01 -4.6847634236896309e-03 0.0000000000000000e+00  -2.6842442227683133e-01 -7.9045292390533844e-02 0.0000000000000000e+00  -2.4703647032841614e-01 -1.5071990709239808e-01 0.0000000000000000e+00  -2.0466550462903069e-01 -2.1075802792174064e-01 0.0000000000000000e+00  -1.4290748376767429e-01 -2.4855304510700713e-01 0.0000000000000000e+00  -7.2963482859911763e-02 -2.6576079379086370e-01 0.0000000000000000e+00  1.9388243699598309e-01 -2.5988368836565517e-01 -1.8264062505445756e-02  8.7380577142326249e-02 -3.4322398861934550e-01 1.1321326261411782e-02  8.4452987608163499e-02 -3.3420137834875141e-01 -1.5937204073467184e-02  -1.8585590694543552e-01 -3.1891991148457066e-01 -7.0395812187293419e-02  -2.0348877885900149e-01 -3.1534227289719546e-01 -1.8976951638044366e-02  -2.6211519620095947e-01 -2.5034483872671770e-01 -6.3024946386299546e-02  -2.7243892389473656e-01 -2.6232428964503934e-01 5.4229655851738643e-03  -1.3917538968864632e-01 -3.4392079906510514e-01 -9.6282883445197240e-02  -1.7623668156357331e-01 -3.2884136285644733e-01 -1.5222520426244524e-01  -8.2895380866883070e-02 -3.4685743189398349e-01 -1.2589347853732516e-01  1.1719359168782001e-01 3.3948576555524546e-01 -2.6838781936051555e-02  1.9544945073303781e-02 3.5185399752503105e-01 -2.0230307492676011e-02  -8.8425100796149278e-02 3.1600498056521431e-01 -2.3687461411051942e-02  -1.8330105866161420e-01 2.5895113098194267e-01 -2.5823964808738411e-02  -1.2533401946980985e-01 3.0087897862164326e-01 -5.4534302847521463e-02  -1.7882232651621265e-02 3.4262571735487063e-01 -5.7451155727933106e-02  -2.2562477082583426e-01 2.2068147852764541e-01 -4.7438730554333251e-02  2.7399245574594533e-01 1.8227185847561889e-01 -1.1091810047145319e-01  2.9957501811435067e-01 9.4084973949507683e-02 -9.3304854259591077e-02  3.2120011535698723e-01 7.5611122925971469e-02 -1.1479314896908165e-01  2.8379521675937092e-01 -3.9254360231559218e-02 -3.2272765129053894e-02  2.5116338450732162e-01 -1.6460287416159533e-01 -6.4023471631522789e-04  2.7379196138393241e-01 -1.3757948197376485e-01 -4.1152504729472010e-02  2.6961608452798702e-01 1.5180765580726693e-01 -7.2524420811098764e-02  -3.7323524817788847e-02 -3.7641012150043135e-01 1.3244338335248998e-02  -1.7787533231144928e-01 -3.4667668648176475e-01 1.5810496916334071e-02  1.8139498611241553e-01 -2.7308959287609091e-01 7.0430133044054903e-03  -1.8247252326952748e-01 2.6265971325788195e-01 -7.2876295823212464e-02  -2.4969980529576449e-01 1.9051199173145889e-01 -7.5580898187358442e-02  -3.2084467141717016e-01 -8.7155028560764680e-02 -7.6540216860809113e-02  -3.2892379633360291e-01 -5.6225710953292110e-02 -3.4395997163821045e-02  -3.2280123528426097e-01 -2.3328765877729772e-03 -8.8551391712385366e-02  -3.2472269541767618e-01 3.4827975529034674e-02 -3.4663262262695421e-02  -2.0599131709799651e-01 -2.8913240717900879e-01 -2.4418132099973403e-01  -2.0239781737417192e-01 -2.7291040771237612e-01 -2.8874162136211723e-01  -1.4275161004636885e-01 -3.0248829577618819e-01 -2.6116376091230514e-01  -1.7681552859130104e-01 2.6552642306488489e-01 -9.4900780301075571e-02  1.5611535102331484e-01 -2.7879225627591075e-01 -6.8610046428886268e-02  5.2411210852948358e-02 -3.2784007769515749e-01 -7.1734579227873366e-02  -2.7446124683772621e-01 -2.3785145307407146e-01 -2.5481565687574420e-01  2.4239694778903781e-01 -2.1713744325339507e-01 -1.2611605299736625e-01  1.0586341311577523e-01 -2.9260761914979094e-01 -1.2156194752484104e-01  3.3225241628778690e-01 -1.4274807711424456e-01 -1.6974768265748497e-01  3.6926702701184316e-01 -6.6905882733342498e-02 -1.4301705967593489e-01  3.1392348914573226e-01 -1.6742234007721157e-01 -1.5694103957449501e-01  -2.1516451838837322e-01 3.5062305900965256e-02 -3.1393649021597142e-01  -1.6135167140307696e-01 1.4327972743601453e-01 -2.9680046382086284e-01  -1.7322814572923739e-01 5.7001955461576985e-02 -3.3041767407846456e-01  2.6302584516479688e-01 -2.0447310300798155e-01 -1.8129173195641637e-01  -1.1450014850717133e-01 3.0672442275951173e-01 -1.1500649716667961e-01  -1.8283996936663778e-02 3.5156496391056580e-01 -1.0876682525284531e-01  -4.5809916238149929e-02 3.4061174531904120e-01 -1.4384657482912483e-01  2.2967892339645427e-01 -2.0758698434048514e-01 -2.0534475224714124e-01  -2.9477101679311846e-01 1.0360168459302185e-01 -9.9104153738602749e-02  -3.1641454249430595e-01 1.8328054440131161e-02 -1.2668380270505944e-01  2.4855813872898441e-01 -1.9867536557429116e-01 -6.7897695560192983e-02  -2.8861939649386026e-01 -6.1855011584931112e-02 -2.9551005753404957e-01  -3.0368838476649523e-01 -4.4099115986790720e-02 -2.5109878782525408e-01  -2.6993727449001165e-01 3.4930967780784229e-02 -2.4853993098747010e-01  -9.4389268498186588e-02 3.2253412318219421e-01 -8.5825628983381308e-02  -2.0125194227922238e-01 2.3033616914316085e-01 -1.2423838664025433e-01  -2.7541968094403857e-01 1.6880122713361137e-01 -1.4221634746438470e-02  2.2684803033340831e-01 2.6657790493761857e-01 -1.2314668515299658e-01  2.2235466825915787e-01 2.7008987764320730e-01 -1.3339335707864780e-01  1.4904329594017537e-01 3.3695028088053525e-01 -1.2997343746533027e-01  -2.7889105179792611e-01 1.0975965404871925e-01 -1.3597485316763736e-01  1.5164469072546866e-01 3.2633794572803804e-01 -1.5816341678118798e-01  1.9891386683131337e-03 3.5253906582177941e-01 -9.1354835936736004e-02  8.5349046169059001e-02 3.4995587393733224e-01 -7.3225510233089014e-02  -1.1148785423249019e-01 -3.5213500236547196e-01 -2.8431879103390102e-02  -3.2732241407705553e-01 -1.8723060797333294e-01 1.3338129052429242e-02  -3.1332849406997199e-01 -1.5606546624625570e-01 -3.1098601348967535e-02  -3.0315590543415138e-01 9.3988689663836056e-02 -6.7285562230890175e-02  -3.4620502900046357e-01 -6.9886555075655471e-02 4.9953660342975980e-03  3.4614876304411318e-01 -3.5878891394090430e-02 -1.1909803472385259e-01  3.4526614924923538e-01 4.3438940996234868e-02 -1.3035632217749249e-01  -2.9590847671995840e-01 1.2543052956962880e-01 -3.9786137525496597e-02  3.2234734202095527e-01 -1.3168974398014352e-01 -1.1991212990919764e-01  -3.0773125861724010e-01 -1.4518927169145074e-01 -2.8022247093782887e-01  -2.5116380570428692e-01 3.5034612301029555e-02 -2.8471218259673509e-01  -1.9460853220148411e-01 1.3805249285898782e-01 -2.7371130588292347e-01  2.0483278407450900e-01 2.7914597252676560e-01 -1.0865140839653325e-02  1.7635424547462011e-01 2.9764991503651883e-01 -5.2972505515259796e-02  -3.2930655772811307e-01 5.9050710593778331e-02 -8.0042347140833123e-03  1.0765577781173190e-03 -3.3590795957953551e-01 -1.0996647139818992e-01  7.7253888424619515e-03 -3.2238644453099013e-01 -1.5355652915949752e-01  -2.4854068665353002e-01 1.8555944450704998e-01 -1.0220575945046194e-01  2.7727812886272646e-01 -3.0523398942353619e-02 -1.2007429644723283e-03  2.7245414286102548e-01 1.0063496733713338e-01 -4.1494207979352205e-03  2.7963275592038639e-01 6.5093010708204530e-02 -3.1902454166281055e-02  -2.9439669749376629e-01 -2.2468224159553996e-01 -1.9244102804878896e-01  -2.5260135482234147e-01 -2.7965183912067054e-01 -1.5412188322171649e-01  -2.8770081121767332e-01 -2.1969168117076049e-01 -1.2603313767300595e-01  -4.8287174844413139e-02 -1.8123392597655918e-01 -3.5988922956332325e-01  -1.2359126278474615e-01 -1.9786482741170922e-01 -3.5825095852287753e-01  -9.7178893028365534e-02 -1.3488102629838927e-01 -3.7572259935585195e-01  2.0896814628401328e-01 -2.3564665993773276e-01 -1.6250694416233533e-01  -2.1926247623258757e-01 -3.0493549787149637e-01 -1.1504123238624796e-01  2.4006495477891296e-01 2.1271029222387206e-01 -2.0233404882660570e-02  2.8840687919204411e-01 1.6719974029245518e-01 -1.2718086038675513e-01  2.2873711904357677e-01 2.4842277634374510e-01 -9.9709699651558445e-02  -9.4688905576527385e-02 -3.3893872503024053e-01 -1.6113887116645351e-01  2.2584227564763806e-01 2.3815427338213108e-01 -6.4547992444291949e-02  -1.3971319095592294e-01 -3.2047916825785761e-01 -2.0733737210564868e-01  -3.0500341263726782e-01 -1.6300656029693100e-01 -8.5192769007838967e-02  2.8917270016496660e-01 5.6509754852351733e-02 -6.3255427048539078e-02  3.1531670818546403e-01 -1.6833908555689028e-02 -8.2688438956771429e-02  -1.7973981967973357e-01 -1.5142914483691822e-01 -3.6137728247679390e-01  3.0968290237410756e-01 -1.0566487637552185e-01 -8.4100593572275020e-02  -9.0811171724590189e-02 -4.3986475608887313e-02 -3.7684674808495877e-01  -9.1671083563303918e-02 4.7357344000682977e-02 -3.6617755276990949e-01  -4.7267471727325421e-02 -1.7107720117628102e-02 -3.7392856566396854e-01  -1.4109637565448455e-01 5.5724910443324584e-03 -3.6253225481058593e-01  4.5679947951960696e-02 3.5849312125776778e-01 -1.8945494152699058e-01  9.5073407635862903e-02 3.3820439237849204e-01 -2.0017484695446525e-01  2.0611348171274038e-02 3.3387680483063598e-01 -2.2871587353542228e-01  -5.7381081005139452e-02 2.8857094158740115e-01 -2.5785208352411232e-01  -3.7798498217684384e-02 3.3018333368419833e-01 -2.2127836435998463e-01  -2.6213491553435864e-01 -2.1975826588205341e-01 -3.0442850448295256e-01  -5.6496728223896849e-02 -3.5178723534427969e-01 -7.9909933508158032e-02  1.7024620617234557e-01 -2.4681347699249770e-01 -1.9383940549037909e-01  -2.8980238521898516e-01 4.7446181800343046e-02 -1.9329669601932264e-01  -2.3108623016537239e-01 1.6161431736610227e-01 -1.7006498807713219e-01  -3.2585086884645487e-01 -9.3753430533194390e-02 -1.2888409598662551e-01  -5.2573063693274968e-02 2.0563257737234295e-01 -3.1593138803399551e-01  -9.4406460614063423e-02 2.2630024564427778e-01 -2.8949980922562690e-01  -1.3331722766142503e-02 2.7942357949539048e-01 -2.7288107772792797e-01  -4.0943691647113492e-02 -3.2264051725710835e-01 -1.8969800573368895e-01  -1.9789707575151153e-01 -2.2568587956000372e-01 -3.3353551420845179e-01  -2.7586029701806281e-01 -1.5182715736827554e-01 -3.2235322665380728e-01  1.7583233160823039e-01 3.1033803356666301e-01 -1.1158919987331226e-01  2.6152792267381253e-01 1.4960470537204593e-01 -3.6370156076636045e-02  -2.3725669578503078e-01 -2.8844873653941422e-01 -1.9729187926905598e-01  9.0424853043878969e-02 3.5281894216466592e-01 -1.0914215542069254e-01  -2.0869307503773787e-02 3.4867170746034998e-01 -1.7999692696918634e-01  -9.0240653091543707e-02 3.0222637104849759e-01 -2.1519958640018058e-01  -5.4446575261290028e-02 -3.0799258201281454e-01 -2.4050880394917870e-01  1.6479795273810519e-01 3.1181182257192824e-01 -8.7059504127601772e-02  -1.5813311095106383e-01 2.2643693909625853e-01 -2.3444700019128864e-01  -1.1074031039637895e-01 2.9240482912558285e-01 -1.8599067056930715e-01  -8.0530990939766834e-03 -3.5441910125888321e-01 -3.5182776013947856e-02  5.8689859435905350e-02 -9.8396740740316832e-02 -3.5412929909973584e-01  1.0363930872170876e-01 -1.5631836919363734e-01 -3.2127972688250095e-01  2.7240320860112324e-02 -1.5233745819635411e-01 -3.5211643500199763e-01  3.5459591759104325e-01 1.2901845988662454e-02 -1.3877323626571583e-01  3.1284443728671896e-01 1.0580766973659081e-01 -1.3691617093460656e-01  3.1919592532541219e-01 4.9087847428984165e-02 -1.5464069128741872e-01  -1.8747844108417769e-01 1.9919659666715159e-01 -2.0170072072579753e-01  -1.2231939976676963e-01 2.4866895180951235e-01 -2.5581717479823540e-01  -2.4285377356769430e-01 1.1184588290978188e-01 -2.1053739082423831e-01  -2.1641739259917386e-01 1.3644986711002743e-01 -2.4254177677401059e-01  -9.3950452977123941e-02 -2.8452213328375320e-01 -2.9537252404330905e-01  -3.2113332260484923e-01 -1.7397523068658761e-02 -1.6562630676164630e-01  -3.2581242437403768e-01 -1.2939491519289356e-01 -1.8832995822140502e-01  1.6069708742175468e-01 -2.2074230360767066e-01 -2.4503832298434047e-01  2.5512124095560496e-01 -1.7334275681221123e-01 -2.0982730949097361e-01  1.2602401936574134e-01 -2.5132644194789289e-01 -2.2971527397156455e-01  1.8451136092668508e-01 -1.7297784199203348e-01 -2.6071524175388366e-01  1.7763944876445087e-01 -1.1522217767218666e-01 -2.8375061644134542e-01  1.7031333757215217e-02 -2.1081640602777635e-01 -3.3226128453323078e-01  3.4081558892442951e-02 9.2516777570212108e-02 -3.2767535292831024e-01  4.3441308997964195e-03 1.7876466984551531e-01 -3.2553167242918568e-01  9.0320337675794893e-02 1.7408247664211085e-01 -2.9977133551389834e-01  9.1286188860383560e-02 2.4921120310890596e-01 -2.7322185523154108e-01  5.8239641876812201e-02 -2.8690768371852532e-01 -2.0732286153272306e-01  -1.2094615142395747e-01 1.2740930055949939e-01 -3.3046208247415465e-01  2.4535850328716080e-01 2.1535153331549270e-01 -1.4838979773656980e-01  1.4510310703695484e-01 6.5098983612969551e-03 -3.0222657416432674e-01  1.9977364813747131e-01 4.9168908351743992e-02 -2.6609814330950443e-01  2.0634001507413641e-01 -4.4762699281915896e-02 -2.7063430133185534e-01  -1.5003060898097184e-01 2.6408509489451737e-01 -1.5598450129163621e-01  6.7658564958674505e-02 3.6514697813557967e-01 -1.5066728941801491e-01  4.8637280197458284e-02 3.6268271036878630e-01 -1.3046098676014467e-01  -3.1288138724269593e-01 -1.7419952441144551e-01 -2.3512578807377366e-01  -3.1305586516344985e-01 -1.5984372026422991e-01 -1.5240019300954563e-01  -7.5386258741750020e-02 -2.3905432733217280e-01 -3.3536613181163655e-01  -3.2327892498182609e-01 -7.5650964103230689e-02 -2.1958359016158363e-01  3.1587912487650666e-01 -2.8151002333785615e-02 -1.7465805914696503e-01  2.5690842479556286e-01 -5.9994323318177719e-03 -2.2682840050455860e-01  2.8070369105541565e-01 6.3318829720788825e-02 -1.9040819238083398e-01  -2.3917910000323794e-01 -1.3990183097758280e-01 -3.4661499585880923e-01  2.6253480480567520e-01 -1.0442660691573354e-01 -2.2074903540963536e-01  1.1280549177338250e-01 -2.7858903766878362e-01 -1.6832721958117539e-01  1.2436401540533766e-01 -5.9732390622684782e-02 -3.2236518499554789e-01  2.2965444990702299e-01 1.2207029433000170e-01 -2.2436270214388615e-01  5.4996689227196700e-02 -2.5947193612435276e-01 -2.7366228104169671e-01  1.0123837597737578e-01 -2.1578617365932959e-01 -2.9281907130010615e-01  7.8630913706382949e-02 3.0590076138819566e-01 -2.4312800618198926e-01  1.7080404193232293e-01 2.9020546594292529e-01 -1.8757785805370858e-01  -2.5801407492455714e-01 -6.4282006391838079e-02 -3.2732741021712825e-01  -2.0275222045042751e-01 -5.7650776326959398e-02 -3.5439632265074472e-01  1.8099283878617263e-02 2.5255428171587807e-01 -2.9354233789472828e-01  1.7955618398371023e-01 2.5045194053970238e-01 -2.1504168408154070e-01  -7.2770319001616378e-05 -2.5150555674268865e-01 -3.0982668226224663e-01  2.5772947925824891e-01 1.5127392698168066e-01 -1.8420000527816185e-01  2.7731502427314142e-01 1.4597892807070217e-01 -1.5703208860896528e-01  -6.7118541529720951e-02 1.3129419806704354e-01 -3.4399934906453167e-01  3.5887578713699519e-01 -5.8419853041448117e-02 -1.4843668910358768e-01  -3.4559874061790959e-02 7.5050317122960009e-02 -3.5142867170217679e-01  2.2650521135374668e-01 2.1954902934732029e-01 -1.7991019284468002e-01  3.1960050082083230e-01 -1.0456048185836310e-01 -1.7724072251145334e-01  2.4793077004797208e-02 -2.8238429796492809e-01 -2.5414846848279560e-01  -1.4431259219817041e-01 -8.3746137499849230e-02 -3.7303164657473248e-01  2.0720481680664829e-01 1.9636649099401926e-01 -2.1746743802151999e-01  1.6452084943063983e-01 1.9988438381109630e-01 -2.5170894926832688e-01  -2.2233445133430781e-02 -1.0571754773803908e-01 -3.7433257271915854e-01  1.6539145700943288e-02 -6.4858532285343523e-02 -3.6521606827409220e-01  6.9946049124950421e-02 -3.5487512045158369e-02 -3.5115611939072000e-01  1.7519959288081383e-02 1.0357574447522420e-02 -3.4675055720031034e-01  9.1987212000598451e-02 2.7753640219339376e-02 -3.2031936710454906e-01  1.0938031676121210e-01 8.4391591728522147e-02 -3.0473739485272860e-01  1.7117385181723030e-01 1.2913880458224233e-01 -2.6940670742186124e-01  1.6576674881833448e-01 -1.3304364037171781e-01 -9.7051814523715640e-02  2.0807748636890697e-01 -1.1718886664080734e-01 -1.3069161286884845e-01  2.0317681785665762e-01 -8.9128799866521100e-02 -9.3597761777471741e-02  1.6237146623070195e-01 -1.5021419363794142e-01 -1.3791873818225456e-01  8.6476768719751143e-02 -1.7090603043807615e-01 -6.3458697868525482e-02  6.1353696558275897e-02 -2.0062030418290716e-01 -4.1584423749838270e-02  5.2257471194090938e-02 -1.9815077526707736e-01 -7.8049252263131391e-02  -1.6322081568891955e-01 -1.6137470113370075e-01 -2.3188642156930131e-01  -1.5665448497402221e-01 -1.4113632210557053e-01 -2.6846110014561758e-01  -1.0888053972957294e-01 -1.7964188719224553e-01 -2.5557639364993379e-01  -1.6668332508930253e-01 5.1738094743602844e-02 -1.0332320589915928e-01  -1.5319814791808267e-01 7.5053546763994811e-02 -9.7978325413909662e-02  -1.5389410526592476e-01 5.8948750566344597e-02 -1.1591031345376240e-01  -3.0652530335999007e-02 -1.8137301906693432e-01 -2.5069208549352556e-01  -6.6143361753470617e-02 -1.9282038618894495e-01 -2.3965326675564733e-01  -6.1557440771091154e-02 -1.7788701714405927e-01 -2.6880236530966428e-01  1.1763904936702463e-01 1.6009491072713586e-01 -1.2291524669887821e-01  1.2650294626016342e-01 1.5378403765053639e-01 -1.5878737346291072e-01  8.5521381587791018e-02 1.9098100058562234e-01 -1.4650710780204604e-01  1.1532963662981134e-01 -1.6220931370724836e-01 -1.7153685756786644e-01  1.0915834984613632e-01 -1.6836531647659003e-01 -1.3334651888523058e-01  7.8994760899795222e-02 -1.7505376499938818e-01 -1.4668717682044430e-01  1.4496822146542859e-01 -2.1533383392443553e-02 -2.0248390264011061e-02  1.4183839744565277e-01 -5.7625265470532670e-02 -2.1360170661877162e-02  1.4930111852120545e-01 -3.0797187559983046e-02 -3.0916201338853085e-02  3.4362058990349609e-02 2.0562665373841271e-01