<?xml version="1.0"?>
<VTKFile type="UnstructuredGrid"  version="0.1"  >
<UnstructuredGrid>
<Piece  NumberOfPoints="662" NumberOfCells="1979">
<Points>
<DataArray  type="Float64"  NumberOfComponents="3"  format="ascii">2.010569747886239 0.4767586851912116 -6.644210719892341e-16  2.945133824740267 0.1278729576708352 -6.736272827977815e-16  1.838787653278616 1.026790284411116 -8.88006537177579e-16  1.43781839659147 1.455301146669243 -1.101283233185767e-15  0.8848172796763936 1.734444672448789 -1.327418635575339e-15  0.2816717065933572 1.902267253774303 -1.316211479713346e-15  -0.342513926827047 1.987180920091552 -1.312354202840599e-15  -0.9553819142525375 1.935164087379431 -1.313557691668957e-15  -1.494520075125853 1.654132470342023 -1.104083150072489e-15  -1.916351676657471 1.216009037823651 -1.109257635723282e-15  -2.149905546910944 0.6581893648451067 -8.818519388782329e-16  -2.209375471741202 0.06607445735121491 -6.516451088214984e-16  -2.003736058474558 -0.4873200110496937 -6.601716418270845e-16  -1.618216459310343 -0.9455383473238737 -4.284137145196128e-16  -1.118529903567686 -1.281111149530641 -4.334997138987808e-16  -0.5309064945987026 -1.427953660461511 -2.195245082888619e-16  0.07910341517705131 -1.429916489251246 -2.11700599393232e-16  0.6710939602767506 -1.299284915519875 -2.180529263349881e-16  1.197428736279517 -1.011788458765733 -4.398308155494333e-16  1.630229585257666 -0.6000337244608035 -6.559775380242057e-16  1.928854965078247 -0.09191957217287691 -6.624654879782555e-16  2.917494282268881 0.7833812410092121 -8.93550841699104e-16  2.653513617431857 1.385661272498779 -1.116330690716899e-15  2.212419122682366 1.867569476491429 -1.328211021679974e-15  1.668432986352361 2.215344393049318 -1.321774830175942e-15  1.077617164722769 2.454618234735389 -1.548254208256453e-15  0.4656168108993012 2.6083398277136 -1.525228395552754e-15  -0.1588901635841935 2.709298091968346 -1.535261269248463e-15  -0.8002725819074576 2.706431638459687 -1.550952271446325e-15  -1.427103568658125 2.542046450038731 -1.543180370886804e-15  -1.99322178806956 2.218249443963817 -1.33582566175327e-15  -2.461166138774834 1.768961194268369 -1.112923071571583e-15  -2.814037963029476 1.225335283278764 -1.101401081162628e-15  -3.03933601157247 0.6134914072332409 -8.69542825893294e-16  -3.067756253203661 -0.04503314537509921 -6.362844181235096e-16  -2.889552918966695 -0.671811951225845 -6.527948526441934e-16  -2.554872686249419 -1.227992859718642 -4.4851513022638e-16  -2.09514600763763 -1.683658743030608 -2.14196267508628e-16  -1.546444398060817 -2.017073244424149 -1.842916613299823e-16  -0.9440881515110372 -2.229601460333332 1.102784260473198e-17  -0.315427308387071 -2.318651857817133 3.243958245072056e-17  0.3178572436706084 -2.310382487122261 4.4842388945802e-17  0.938227064430209 -2.174526610577152 -1.545266619927295e-18  1.515336836845529 -1.908834325339693 -2.144396698281784e-16  2.024289106694925 -1.528695545522159 -2.486317279218043e-16  2.44432447677276 -1.051617451355748 -4.275051082376151e-16  2.759866666410008 -0.495402604182508 -6.603428795749436e-16  1.947790759016499 -0.4467846494629616 -0.4198528348782612  2.15811740143622 -0.2017586073849176 -0.6286089710717224  1.374761563511434 1.426727050074299 -1.527836476738894  1.8454679596463 1.128444347861254 -1.150374321816174  1.769759078088199 1.149593457892589 -1.705003226897203  1.546498628885802 1.40394156976438 -0.8116435360392679  -1.479655316444323 -1.461241173581112 -1.872494041023338  -1.739340225003905 -1.266588289830489 -1.182083151781044  -1.912175872033788 -1.06076364354062 -1.663081310256482  -2.093972001612665 -0.8140595853463513 -1.253814941945204  -0.5064262649057233 1.48513156121835 -4.935449208461947  0.04479118405031238 1.726133375990833 -4.81221658925536  -0.01988673156942222 1.499842625796801 -5.234002289907553  2.348561673438784 0.2008874534996046 -1.865476445803739  2.228859301156987 0.6178791474019345 -2.261673743241453  2.138737595280216 0.7373415774870409 -1.549306056293508  2.3691810869483 0.2562361087294758 -2.631751978570374  2.328239330245296 -0.3201769485505067 -1.650143896744334  2.226877376891556 -0.3734052031071149 -1.100371481940494  2.150597762311717 -0.7833486944215213 -1.3969834397217  2.028931342633441 -0.6727294657752193 -0.8105601220291438  -1.826610842462368 0.2198370890441438 -3.521293975075654  -1.926506730873026 -0.2265444765055923 -2.981178713824876  -2.15400181913826 0.3907730044780031 -2.871568066373109  -1.62153644065521 -0.3573006577521086 -3.490223998114758  2.367614311888259 -0.290173554536428 -2.303729485589363  2.318921087778375 0.1483867306488415 -1.139333513998076  -0.847142555389268 -1.846049656635793 -1.897916010313636  -1.058223809185558 -1.610510233336941 -2.453907293091901  1.302272955017398 -1.835563762791306 -2.697940256991011  1.60387194688945 -1.636279999003757 -2.264699034189398  1.168720725204428 -1.904575552755541 -2.109516685328984  -0.07674030619167525 -2.011151105461658 -1.357675487063296  0.09578906983433713 -1.782561900953655 -0.6946241261362625  -0.3658803535391729 -1.752153116868012 -0.6325666333842404  1.722873230515075 -1.546254227360855 -2.830308391266166  1.066103768018936 -1.887791087646504 -1.577371197066151  0.725321438518359 -2.051970042250531 -1.957866780705039  0.5645176076823049 -2.028353811132779 -1.52078449710751  -2.291472207833671 0.3926471267195167 -0.6692333332235522  2.152322608114809 0.7596424728562969 -0.7182503883491925  2.185158411905858 0.2304311008927264 -0.4725483327822317  -2.165918029915119 -0.1255246765062702 -2.426182271810079  -2.306150194122985 -0.052195084392843 -0.5426731685008636  -0.1969889192410472 1.918051867302855 -0.567209393708504  0.261427884545369 1.837515862447854 -0.8113928129157849  -2.182015083749232 -0.4078666954033585 -0.4086693894578545  2.097967582321165 -1.130010199301604 -3.047782260636823  1.887940681311375 -1.372241846777598 -3.500922994012011  2.200617361927499 -0.9906968483531875 -3.602640289677121  0.7756729827795358 -2.024128096711773 -2.529894102399021  0.288755836902854 -2.085405990641432 -2.015230028464535  0.1632347165676715 -2.034627817823019 -2.580924346106108  -2.300981673754634 0.3573268317543575 -2.101155126726162  0.827193629574106 1.744205833087077 -0.5171959383352404  1.933664031922372 -1.196902963557938 -4.159912568478171  -0.3126698077395678 -1.895990833752545 -2.782834499813085  0.06737791694948861 -1.917562727886519 -3.169465576892878  0.6511467773845044 1.807628983471849 -3.860057085282611  1.209064178651278 1.672787120944208 -3.73315400120764  1.175175684442624 1.704359637772798 -4.248864229979901  0.9556011252869029 1.694194949427821 -3.220977469534683  1.359795886808602 -1.579892817686433 -1.120753945894271  0.8759275878527855 -1.815100197889995 -1.108746640013998  1.18521163553017 1.586477497050529 -0.8379666413753015  -0.9708328107553417 -0.7392446360020813 -4.22838453599248  -0.8670727499215272 -1.281366872925461 -3.606368439299168  -1.299895875595103 -0.8353456992118962 -3.555882765855692  0.726027740706842 1.68559083213377 -1.330091963710307  -0.5188449914599851 -1.129320148955957 -4.329905935788909  2.263719553243726 -0.7705054852678391 -2.670263398637056  1.954861741723004 -1.287529540229092 -2.343145344682949  2.307299823962541 -0.7431575831180682 -3.19632771663512  1.898766336277752 -1.293133256133885 -1.740217526864319  1.471647772770563 -1.690854723141942 -1.744235351421142  0.5431916409463662 -1.743273450874522 -3.896160660308479  0.4194751341297511 -1.549760860956543 -4.300411200209465  0.9506452125878836 -1.573601542394842 -4.250406080633565  -1.149235844705421 -1.316406341849994 -3.042185755875578  -1.486805460900119 -1.337901245431638 -0.5612561962626929  -0.7400273010649028 -1.653679126389843 -2.956986673836328  -2.242951491557481 -0.4880482394140835 -0.8907797032806293  -1.963508583703587 -0.9305991859971748 -0.6541711349098466  -2.149298220879885 0.9930330695618297 -1.822607664166226  -2.33249498418904 0.3246358215558054 -1.410779954518915  -2.1941869806312 0.7237070877377683 -1.133511896372327  -1.236442512819196 -1.648430954222591 -1.225065566635682  0.105480225322611 -1.694434611407831 -3.852583455918105  2.654457538098173 0.4130567008337244 -5.016962737282435  2.517308744295587 0.8989354382163638 -5.248434850577653  2.497395971107918 0.8668499813961672 -4.634894418428714  2.659932985407091 0.494885840116145 -5.537866361473862  1.701727735802866 -0.8497866091817162 -0.4675699261366957  2.418664162934669 -0.549619711151959 -3.64255333395181  2.286791205936512 -0.8186290265589156 -4.060187863799417  -0.3297468782647632 1.78941635649364 -4.28840274910138  0.871950539458454 1.597351086728 -2.059452151905159  -2.287446728924663 -0.2872537831329997 -1.357320377246033  -1.026920597055379 1.812550349668201 -2.839251776505612  -0.6648110786114233 1.865483269642649 -2.178398915252673  -0.5198842785969324 1.861187920384253 -2.882817799471902  -0.1539514167272903 1.832465230923542 -2.482219003936211  -1.426557141451617 0.4124264725505793 -4.404552283938154  -1.361812050282387 1.053682493812115 -4.375365611650597  -1.248894891276142 0.7083423022785167 -4.695358809163669  1.070443954112101 -0.6230868434750706 -6.243913853472955  1.399564292527784 -0.2600021733840938 -6.659295819731181  1.763045628213578 -0.5996967539545899 -6.212066466522213  2.112388974497101 -0.1452770975503895 -6.62447121414052  -1.740273083031544 1.363211078927536 -0.4984929454050105  -1.363630348627079 1.635934970863218 -0.8385900413386465  -1.888061496007762 1.209446924094129 -1.146204801698016  1.812258468920956 1.204434138585302 -0.5257870931587443  -0.7141108591132086 -1.860468957243389 -1.176629775596636  -0.9427065581071907 -1.633004356616227 -0.6270539058395574  1.95058099318981 1.002540522635432 -2.252339335518263  2.234541176389162 0.8395706304281495 -2.998736277831196  1.75002800533782 1.282033048636095 -2.757207366812161  1.538841847638262 1.319430017937749 -2.182596705090868  1.192281749856767 1.544221986464265 -2.626870616055279  -2.13
[...]
<PointData  Vectors="f_1276866-0"> 
<DataArray  type="Float64"  Name="f_1276866-0"  NumberOfComponents="3" format="ascii">2.2208503683895792e-01 -3.8764733796111631e-02 0.0000000000000000e+00  7.7544258207612723e-02 -4.9736942385775744e-02 0.0000000000000000e+00  2.2657415378231358e-01 1.3456757213666476e-01 0.0000000000000000e+00  2.1018521182874017e-01 3.1950057559115430e-01 0.0000000000000000e+00  1.6758259439206030e-01 4.7394080381135095e-01 0.0000000000000000e+00  8.5641291358619490e-02 5.5629085413213142e-01 0.0000000000000000e+00  -1.6357925339681778e-02 5.5359056142207508e-01 0.0000000000000000e+00  -1.2337135307168783e-01 4.8360544575911801e-01 0.0000000000000000e+00  -2.1275630074274324e-01 3.8731233632944584e-01 0.0000000000000000e+00  -2.8070614316626824e-01 2.7246020600008281e-01 0.0000000000000000e+00  -3.3375243000429461e-01 1.4448575383418599e-01 0.0000000000000000e+00  -3.6537776820829426e-01 -2.8336981124386137e-04 0.0000000000000000e+00  -3.8749916282141234e-01 -1.6865832883380139e-01 0.0000000000000000e+00  -3.7645428773023465e-01 -3.3890196936356554e-01 0.0000000000000000e+00  -3.1938148039366149e-01 -4.8596380178820969e-01 0.0000000000000000e+00  -2.2039975848521071e-01 -5.9311598870910920e-01 0.0000000000000000e+00  -1.0290536213179778e-01 -6.2640868830587271e-01 0.0000000000000000e+00  1.3054572373523364e-02 -5.9181126333188638e-01 0.0000000000000000e+00  1.1300118812676975e-01 -5.0020857275031183e-01 0.0000000000000000e+00  1.8138351436367239e-01 -3.6817509421984357e-01 0.0000000000000000e+00  2.1171475403960410e-01 -2.0947723799888629e-01 0.0000000000000000e+00  8.0355419715532783e-02 -1.2291840447418203e-02 0.0000000000000000e+00  1.0966074440685136e-01 4.0265342882248714e-02 0.0000000000000000e+00  1.4541314645137537e-01 1.2741672726096351e-01 0.0000000000000000e+00  1.5365637219307593e-01 2.4821168452362680e-01 0.0000000000000000e+00  1.1264044423757512e-01 3.6052212433613284e-01 0.0000000000000000e+00  3.0467965501293978e-02 4.2754983801285401e-01 0.0000000000000000e+00  -6.6366337660795555e-02 4.2279137262719590e-01 0.0000000000000000e+00  -1.4302417372779197e-01 3.6388278715458505e-01 0.0000000000000000e+00  -1.8646688839265285e-01 2.8224030075807705e-01 0.0000000000000000e+00  -2.0174037508851003e-01 2.0618472609779701e-01 0.0000000000000000e+00  -2.0759230764893918e-01 1.3242559270121843e-01 0.0000000000000000e+00  -2.0451500399755726e-01 6.6293598342109808e-02 0.0000000000000000e+00  -2.0061402949677151e-01 1.2555558518563261e-02 0.0000000000000000e+00  -2.1107433419409530e-01 -2.0245352106120971e-02 0.0000000000000000e+00  -2.3606602168473845e-01 -8.0972135512352605e-02 0.0000000000000000e+00  -2.6488496255725302e-01 -1.5913119732850528e-01 0.0000000000000000e+00  -2.7369443867344373e-01 -2.5300383235870721e-01 0.0000000000000000e+00  -2.5488046727747471e-01 -3.5257617565773691e-01 0.0000000000000000e+00  -2.0375779344271736e-01 -4.3281809605565441e-01 0.0000000000000000e+00  -1.2847560272549494e-01 -4.8411577617014578e-01 0.0000000000000000e+00  -4.3055833565169892e-02 -4.8143044694003873e-01 0.0000000000000000e+00  3.1181875657346148e-02 -4.3912637171160734e-01 0.0000000000000000e+00  8.7151903359845226e-02 -3.7175485373313560e-01 0.0000000000000000e+00  1.1635051242491881e-01 -2.8459824134147949e-01 0.0000000000000000e+00  1.2208946115053521e-01 -1.9223670514277777e-01 0.0000000000000000e+00  1.0284834530969159e-01 -1.0760917651568780e-01 0.0000000000000000e+00  2.1969992759192303e-01 -2.5870553729892803e-01 8.5848439315469125e-03  2.2733956734203883e-01 -1.6015212480902824e-01 -1.1192959523056885e-02  2.0988838793107442e-01 4.2678638309532563e-01 -1.0987846700836719e-01  2.3458836266701419e-01 2.6161114445865280e-01 -7.4897114224831363e-02  2.4833053259573998e-01 3.1530780931467878e-01 -1.1037148274874288e-01  2.1075192501272713e-01 3.4454983436644571e-01 -5.5403411143864004e-02  -3.2761744202919119e-01 -4.0451649581528210e-01 -1.9825441991481593e-01  -3.4849427886391598e-01 -3.5418689920928709e-01 -1.0285875705499749e-01  -3.6215815010471264e-01 -3.0219970436950461e-01 -1.6701800416757942e-01  -3.6941646261776800e-01 -2.3634376935923196e-01 -1.1153079983890733e-01  -1.1398449413249664e-01 2.1513243290243680e-01 -4.1412731641068407e-01  -4.1283861094014017e-02 3.4244648964663843e-01 -3.9631911921244206e-01  -6.7113201242810810e-02 2.5838849037337791e-01 -4.4138744316798756e-01  2.7785782659684449e-01 2.9052092970229825e-02 -1.0305562823412562e-01  2.8991890289389777e-01 1.5089458383687049e-01 -1.2762737887405998e-01  2.5855674009715940e-01 1.5792231590895592e-01 -9.0756320966041942e-02  3.1457286644027599e-01 6.3739466199525335e-02 -1.4688260456577842e-01  2.6744723548473959e-01 -1.0625079063987757e-01 -8.8244593513938749e-02  2.4361117434266810e-01 -1.5842913128894323e-01 -4.3856908446772438e-02  2.4226347704749152e-01 -2.2955266904483848e-01 -6.8688959132414795e-02  2.2343373437756597e-01 -2.6161773539897504e-01 -1.7486638968232694e-02  -3.2713014035101895e-01 -1.1286256686301829e-01 -3.6741322030937529e-01  -3.7028882251023887e-01 -1.9086836088151179e-01 -3.2866895715812844e-01  -3.2549191235410230e-01 -5.1147101020683268e-02 -2.7752055970846440e-01  -3.5846446911938701e-01 -2.3783728445307761e-01 -3.9667063956517495e-01  3.0145865212184758e-01 -7.0074888889066170e-02 -1.3412777170402507e-01  2.4296939971159975e-01 -3.0812973064693244e-02 -5.3658400565414585e-02  -2.4477023262521103e-01 -4.9188776797397671e-01 -1.9453418965668479e-01  -2.8663431792437916e-01 -4.5565927123861288e-01 -2.7563951052058222e-01  1.2968428521529229e-01 -4.0846346519244597e-01 -2.2957351606575246e-01  1.7865997823759402e-01 -3.7590427734402759e-01 -1.7392846903125550e-01  9.8059850729016518e-02 -4.4639271703141925e-01 -1.7354816428327913e-01  -1.1994008484965894e-01 -5.5271777170147840e-01 -1.0544018305345390e-01  -8.3116080261347855e-02 -5.9593083311359929e-01 -1.7154994063930552e-02  -1.6748555176738592e-01 -5.8788980510715050e-01 -1.7342854612492867e-02  2.0639739577593222e-01 -3.3498452993779199e-01 -2.2191847870177700e-01  7.6372635297623795e-02 -4.7870029940167991e-01 -1.1158651324554494e-01  1.6987604901092239e-02 -4.9438459097293525e-01 -1.6897553794338155e-01  -1.2254673532460967e-02 -5.2428238949609440e-01 -1.1589553835276568e-01  -3.4303714444464461e-01 5.3828935261840835e-02 -4.5867974622026970e-02  2.2216600448269502e-01 8.9345323385693121e-02 -3.2509699632625601e-02  2.2464041034123880e-01 -6.3023429462936223e-02 -7.5619669590002297e-03  -3.7102062368518246e-01 -1.3900284691958956e-01 -2.4884478904851029e-01  -3.5809847691785235e-01 -4.8359199270519175e-02 -3.3726631273944083e-02  -1.4562506286033309e-02 5.6716997465711982e-01 -5.0623184155153489e-02  6.0303736806206029e-02 5.7453851135962142e-01 -6.8818515966600116e-02  -3.7477918232547397e-01 -1.4221260789836379e-01 -1.4907596823437643e-02  2.7086978129209272e-01 -2.3548515262864808e-01 -2.1589667738608681e-01  2.3211146208793529e-01 -2.7929439056360844e-01 -2.7457279321935335e-01  2.8399230080501253e-01 -1.9635588708390891e-01 -2.5688855670142319e-01  3.1873349694537631e-02 -4.7079449886499231e-01 -2.3305619356699236e-01  -5.9595088838043112e-02 -5.1885790937067633e-01 -1.8668268206995797e-01  -7.8919262320169395e-02 -5.0498343475920981e-01 -2.5914660361060549e-01  -3.4067521599146894e-01 -1.7389010559047537e-02 -1.8798084678264732e-01  1.4093477455220277e-01 5.0652060197478621e-01 -4.0892335477279503e-02  2.3959508060057097e-01 -2.5218725456431007e-01 -3.2938264561565689e-01  -1.6515299755499435e-01 -4.9861510017079491e-01 -2.9939359618882860e-01  -9.5182037724009558e-02 -4.8180822466631912e-01 -3.3176722074458265e-01  9.0106691903723224e-02 5.0943303199327439e-01 -2.8209518170384357e-01  1.7928249249428688e-01 4.8617140624619531e-01 -2.5432032627105006e-01  1.5685296018719189e-01 4.6540214294350429e-01 -3.0487158938590342e-01  1.5498625461827206e-01 5.2868298958237536e-01 -2.1447351329082356e-01  1.2883304487044078e-01 -4.5635002458805973e-01 -4.7105454082763627e-02  4.7066397964353711e-02 -5.2374742072734570e-01 -5.1359579497790873e-02  1.8053694968471684e-01 4.4583976882288145e-01 -6.3179341697273239e-02  -2.8293207048162206e-01 -3.2070617917308020e-01 -4.8164691865363157e-01  -2.7106513344688998e-01 -4.1353487905988490e-01 -4.1737329846890026e-01  -3.3702054496145817e-01 -3.3657036195987333e-01 -4.1581021167773630e-01  1.3187889928895358e-01 5.4686130227290275e-01 -1.0405916499584822e-01  -2.0264542541215388e-01 -3.8420455159255118e-01 -4.8585153251405705e-01  2.9744879778296168e-01 -1.6758893899807276e-01 -1.7109747144471787e-01  2.4056273858492241e-01 -2.9170439716817964e-01 -1.6493627013046680e-01  3.0910637423406995e-01 -1.5028887347528352e-01 -2.0809673835686088e-01  2.1578562454793895e-01 -3.2171531854355340e-01 -1.0931940271891587e-01  1.4690341161555293e-01 -4.1557321124512514e-01 -1.2279515541701996e-01  6.3048192208942891e-04 -4.2863892825209149e-01 -3.9626009019397834e-01  -1.8582090407402649e-02 -4.1384539227313616e-01 -4.4631097824906851e-01  7.9632016086570445e-02 -3.8425165522384108e-01 -4.1189158194832121e-01  -3.1198725351057383e-01 -4.1399025577080717e-01 -3.5436200241465288e-01  -3.3499710220974305e-01 -4.1713337076199275e-01 -2.6175718319064990e-02  -2.4267201194963256e-01 -4.6853803136402872e-01 -3.3445714971718510e-01  -3.6773853418010277e-01 -1.5206711842110568e-01 -6.7511409563339397e-02  -3.6642174797664362e-01 -2.7341385915570937e-01 -3.9814011681004319e-02  -2.9482609336406618e-01 1.3740897327393212e-01 -1.4189040688595059e-01  -3.4506008542063588e-01 1.3346912511984695e-02 -1.1585739505926584e-01  -3.2590136039171930e-01 1.2054864623740096e-01 -8.3837268741611445e-02  -2.9551694046647187e-01 -4.5948305613611040e-01 -1.0657717865019302e-01  -8.4950636971353202e-02 -4.4707049050194425e-01 -4.1183488849048844e-01  3.3309669470972403e-01 9.3175122696315879e-02 -3.1093125563300023e-01  2.9846431646490917e-01 1.9662465554484032e-01 -3.3860421435079135e-01  3.1665330369983569e-01 1.9231182912980552e-01 -2.8553593287060042e-01  3.0696281788659846e-01 1.1479224371441718e-01 -3.5872227094005055e-01  1.9660288006256613e-01 -3.6676047996654870e-01 9.8872317872309955e-03  3.2180180435303662e-01 -1.0603949843436676e-01 -2.3389859782940486e-01  2.9581711607767419e-01 -1.6417529716551574e-01 -2.8545108228682675e-01  -7.6523643291404930e-02 3.6062242365495539e-01 -3.4915446089028346e-01  1.5923883986294482e-01 5.4141778711496757e-01 -1.4268768177504623e-01  -3.6933284225901358e-01 -1.1905784996756870e-01 -1.1952385609079913e-01  -1.3822381083181590e-01 3.9174083712382024e-01 -2.2528216348205365e-01  -8.4341041797722213e-02 5.0122164619523091e-01 -1.6134467150688750e-01  -6.3674443071999001e-02 4.9180631825669363e-01 -2.2123280897984690e-01  1.1336372926577690e-03 5.5916603124522846e-01 -1.8060231344216390e-01  -2.5800058665726772e-01 -7.7628509550385583e-02 -4.3384441485327402e-01  -2.0152496027848846e-01 6.6387368388866622e-02 -3.8027607404953401e-01  -2.1123798525609502e-01 -1.1927040874910181e-02 -4.3396890278342076e-01  1.0935067709053579e-01 -1.7607072931709006e-01 -5.3076848974825364e-01  1.5337180449718704e-01 -6.7430100993179157e-02 -5.2197085241837127e-01  2.0515669650422760e-01 -1.3471177053017055e-01 -4.8696764509249846e-01  2.2766338405860401e-01 7.8594667753205810e-03 -4.6716535552874566e-01  -2.7296100033988818e-01 3.0553927976237522e-01 -4.0128138929098958e-02  -2.1560010634585028e-01 3.9570932536165038e-01 -6.5079820655061404e-02  -2.8529849491840270e-01 2.4817491680288384e-01 -8.2039959893097120e-02  2.1917593872042571e-01 2.2958659838333098e-01 -2.5625490333748436e-02  -2.2245334389709043e-01 -5.2896130139017972e-01 -9.2525727388913778e-02  -2.6180412136819420e-01 -5.2359228960584614e-01 -2.6062338659354201e-02  2.7471049854724772e-01 2.7595183706510640e-01 -1.3187330131432684e-01  3.0523016470731024e-01 2.0549949219065608e-01 -1.6704573586117522e-01  2.6274240922689990e-01 3.6749816164147886e-01 -1.6205858309345161e-01  2.3896370221961927e-01 4.0627010046545009e-01 -1.3799663905886875e-01  1.9912823084925127e-01 4.9785784147256634e-01 -1.6652296627263954e-01  -3.7510813037284546e-01 -2.1489422771837990e-01 -1.7466843037651475e-01  -3.7056024752714650e-01 -3.1079407543956139e-01 -2.4848426107195382e-01  7.2458224744015143e-02 -4.2455325003190186e-01 -2.9164576849424934e-01  -1.1264189863156525e-02 -4.7214203798799675e-01 -2.8974545737076701e-01  -2.7979703825676667e-03 -4.4413615395965800e-01 -3.4799046464517275e-01  6.9853559642141336e-02 5.8684225496889109e-01 -1.4330660023168762e-01  4.9481177664083643e-02 5.8404808635234495e-01 -1.0955210051130178e-01  -3.3584404406136081e-02 5.5556227071142972e-01 -1.2878922403711293e-01  1.0533176286991937e-01 5.7312044044442623e-01 -1.7966075347834115e-01  1.6497361471277561e-01 -3.5058757655208861e-01 -2.9252279188445579e-01  -3.5528466411064885e-01 -2.9640766711272016e-02 -7.2946150529469733e-02  -3.1685098066873352e-01 1.8452234330841336e-01 -4.1356226663293118e-02  2.5686687741608416e-01 2.9745092658456079e-01 -3.5040363251957557e-01  2.1372747288076721e-01 3.9589129998017736e-01 -3.2501696505406252e-01  2.8273720350088283e-01 3.1046919925044369e-01 -2.8133696896687665e-01  1.6483375468964637e-01 3.7129679279031025e-01 -3.8723499985912219e-01  3.0771394526550794e-01 2.4273475774718764e-01 -2.2905856272528266e-01  -2.5986266218798265e-01 -1.6590705513583933e-02 -3.7820924313773691e-01  2.7143814225097479e-01 -1.9503803847890488e-01 -1.2378448198448160e-01  -2.3554017840201802e-01 3.1535561856985911e-01 -1.1576826760945703e-01  1.9856735511487880e-01 -3.4998674540916019e-01 -3.7194742241550505e-02  1.0976421503648279e-01 4.2504386213803924e-01 -3.6680525176943773e-01  3.6998496921147817e-02 4.4653753902571808e-01 -3.4670031846299548e-01  2.5270266943629766e-01 3.8647086491255422e-01 -2.4647925415481109e-01  5.7581200097635260e-02 -3.6316039721513454e-02 -5.4243571498025234e-01  1.5160054328201464e-01 3.0192517265306057e-02 -4.9920499015182501e-01  -2.2512226006263483e-01 -4.9211859630608884e-01 -2.6509696204476924e-01  -1.8151914668019639e-01 3.6859415422928821e-01 -1.6007757026258340e-01  -1.4794332840599103e-01 4.5765905959231490e-01 -1.1065271515919767e-01  -8.1704894052060051e-02 -1.7197957438233186e-01 -5.5825690787656301e-01  -1.6593543763943153e-01 -2.4934718402814160e-01 -5.4631040239550721e-01  -1.6960017655684609e-01 -1.2861592696655910e-01 -5.3041725417687791e-01  -2.3892782613679570e-01 -2.2614292560433924e-01 -5.1761249683623944e-01  -4.1283659102489233e-02 -5.4556055236603819e-02 -5.5152620857010215e-01  2.0582358515845358e-02 -1.3068022459385684e-01 -5.5518167694405474e-01  -2.6993833778810888e-01 1.9518296761070728e-02 -3.1707100393790627e-01  -3.1399962303389423e-01 -1.4718681792116223e-01 -4.2094364498945941e-01  1.3288774713439132e-02 -2.1704261743975914e-01 -5.4881769927781432e-01  -5.8245727890970420e-02 -2.8189023800912444e-01 -5.4720039872384063e-01  1.7022560877067444e-01 -3.3084631255137581e-01 -3.4772534296185986e-01  1.8580335379118332e-01 2.8289138174729067e-01 -4.2781039512054220e-01  2.6488646064432325e-01 2.0504792412886086e-01 -3.9142882665497669e-01  -1.5269838381300441e-01 -5.1989954904333302e-01 -2.1504938784988339e-01  3.4813174015873596e-03 -5.9010908337349766e-01 4.5441771669332718e-03  2.0652450731434127e-01 1.8944737226080177e-01 -4.4171271512562288e-01  -1.5896453994234483e-01 2.1819288172979129e-01 -3.5061441861231402e-01  -9.7214248003337334e-02 4.0120267391695774e-01 -2.8642117644119369e-01  -2.4536543074594472e-01 2.3242972884764873e-01 -1.6305429972384880e-01  -2.0792166610799326e-01 2.4337664110137125e-01 -2.2779023060159040e-01  -1.3255928206405149e-01 -3.4186973405965432e-01 -5.2725726511771298e-01  -2.1513567731871699e-01 -3.1482003986706425e-01 -5.1758090020886216e-01  -3.2068066971625654e-02 -3.5013665826714546e-01 -5.1920055930586539e-01  -8.6790626945122976e-02 -4.0375862819183195e-01 -4.8292593337307721e-01  4.6213444828350915e-02 -3.7144695547669526e-01 -4.7289746455887460e-01  3.3063411925573566e-01 -3.0213078181789865e-02 -1.8361099916366791e-01  -3.6733330571232820e-01 -1.0651708988714770e-01 -1.7183803227199482e-01  6.1347856526525312e-03 5.3705166836196283e-01 -2.2850925906568317e-01  8.3410920538671190e-02 5.5231537187785518e-01 -2.2887179657405884e-01  -7.6428494784155660e-03 4.8542637019225893e-01 -2.8535770831291701e-01  -3.7867568890632791e-01 -2.3592950490148698e-01 -2.8760424924887917e-01  -3.7992438847102489e-01 -2.0876751344098363e-01 -2.3027018662463811e-01  -3.2265744873021411e-02 -5.6068589022121729e-01 -5.4379257494524061e-02  -3.6910077265572161e-01 -3.0868430364230393e-01 -3.4390117027709222e-01  -1.7422863238240027e-01 -4.3447104288990041e-01 -4.4045086646803394e-01  1.7789407522835976e-01 -3.8221568551104651e-01 -7.7117321740235875e-02  -1.8125500466009134e-01 -4.6478082981789504e-01 -3.8285773236429010e-01  1.9837174576320860e-01 -2.5819814755716114e-01 -4.2729811641628879e-01  2.5696047828051544e-01 -1.9240452357070678e-01 -3.8054708287026245e-01  2.3288774867661891e-01 -2.4579483607212857e-01 -3.7646803930240980e-01  2.4025652437868639e-01 -1.6752139198385080e-01 -4.2920855838168359e-01  1.5770229902885041e-01 -4.4505694412644148e-01 1.5236904160900056e-03  9.2631158812646330e-02 -5.2912150817769021e-01 5.5611199257060767e-03  -1.1769301812884388e-01 5.0641318866136042e-01 -5.9794381948480017e-02  -3.4604865410744000e-02 5.6158948279576870e-01 -9.2737407246376552e-02  2.2963640840028751e-01 4.4275276006673564e-01 -2.0257562762535497e-01  1.6006154779028736e-01 -3.2197583177980604e-01 -4.0980291512757583e-01  2.8095260294030727e-01 3.2023781699135473e-01 -1.9816521905794882e-01  8.4315504484372708e-02 -3.9695390319253560e-01 -3.5581956735057607e-01  -1.6908363656801598e-01 8.5436516897350878e-02 -4.1674842825910435e-01  3.4229077690780058e-01 -1.3525186161994759e-02 -2.2934471429837833e-01  -2.1437588214917591e-01 1.0932302179457286e-01 -3.3310756404774133e-01  3.2932294215842722e-01 -7.2466064777896647e-02 -2.7736818814105940e-01  -3.3988579956873854e-01 -3.9219323187698779e-01 -2.8967196196956080e-01  -2.6286255078905763e-01 1.0692005714930287e-01 -2.2877519722450204e-01  3.4510056650017118e-01 5.7822350614538665e-02 -2.5955588132120544e-01  3.3660679866974558e-01 9.4447054619934787e-02 -2.0434757565171149e-01  1.1218056248958799e-01 2.0287465322933890e-01 -4.8437378901412081e-01  8.0206328498795942e-02 2.9228538068892107e-01 -4.5821700629571815e-01  -5.1851237829204519e-02 2.2394072115895719e-01 -4.7179491077940194e-01  -1.9391096610427431e-02 1.9147635794782417e-01 -4.9223919400006927e-01  -8.3700688797591724e-02 7.3591752327363660e-02 -5.1202167505613372e-01  -2.1434277266530410e-02 6.6718539285903836e-02 -5.2552083368815006e-01  2.9442509870952971e-01 -9.7877198171879606e-02 -3.6990370550568158e-01  3.2856359325817419e-01 -2.9556207725141913e-02 -3.1590563499727270e-01  2.9143666606284002e-01 -1.5108590340678685e-01 -3.2869461876868128e-01  3.1236746666368442e-01 1.6999916893216113e-02 -3.6627317322484981e-01  -9.8823631188370772e-02 -6.2754131791388904e-02 -5.3953682552121929e-01  -1.2958970396776867e-01 7.2159335834661494e-03 -5.0309970096948298e-01  -2.2658221240381352e-01 1.4281066933389180e-01 -2.8288750150008535e-01  -3.1201292035978467e-01 3.6989089486364160e-02 -2.1045284481180870e-01  1.1092179812269721e-02 2.9291147979789101e-01 -4.5717678652378241e-01  5.5838829073515180e-02 6.7023415005866796e-02 -5.1183247318776226e-01  -1.9025106354347598e-01 -5.2334691670939304e-01 -1.5792667952718004e-01  -2.3145586205948299e-01 -1.1620164362189192e-01 -4.8807634386011201e-01  1.2834509714686532e-01 -3.1317814186834969e-01 -4.6420883423144782e-01  1.6148320175856234e-01 -2.3933777087023103e-01 -4.8185803737085281e-01  -1.7299031958160194e-01 2.7314716336131528e-01 -2.8585822948142481e-01  5.5812914460952615e-02 -2.9594527731703679e-01 -5.1666316522497657e-01  7.7411038093564130e-02 3.6601263334768142e-01 -4.1825986070399224e-01  -3.2935183480813812e-01 -2.56645830992977