<?xml version="1.0"?>
<VTKFile type="UnstructuredGrid"  version="0.1"  >
<UnstructuredGrid>
<Piece  NumberOfPoints="622" NumberOfCells="1856">
<Points>
<DataArray  type="Float64"  NumberOfComponents="3"  format="ascii">0.6742763065737838 2.229601040683581 -1.314117824163985e-15  -0.09611263858473429 2.928450163725732 -1.300433923846469e-15  0.04090006329630733 2.406810654187771 -1.363457462236462e-15  -0.6123334935505302 2.423558570991746 -1.313456166529236e-15  -1.197572075936407 2.167778887304556 -1.270972993068067e-15  -1.586237587143981 1.645538741607742 -1.060173492692386e-15  -1.795923212839991 1.038661679146893 -1.082105018118495e-15  -1.842080994041631 0.4040758733306242 -6.463928715843691e-16  -1.727790005803401 -0.2032128977632052 -6.470894327670687e-16  -1.410058706746772 -0.7258639066197117 -4.317711370559603e-16  -0.9070111576092034 -1.073409226654938 -4.533240304218351e-16  -0.3134232314297684 -1.251792079984966 -4.431137223646204e-16  0.312975379406163 -1.237839556635758 -4.651641429339514e-16  0.914920613881491 -1.07939938745388 -4.660815487870552e-16  1.443139223504557 -0.7478819680597388 -4.364969606501915e-16  1.816871049867381 -0.2592975954601807 -6.632767456112974e-16  2.017841925840408 0.3221107707451226 -6.565743255932192e-16  1.953827987377618 0.9285242870486562 -1.077572823476321e-15  1.693574843428705 1.485388060628847 -1.063917722209377e-15  1.237288201891975 1.912625438738094 -1.285456968242423e-15  -0.8086752465710293 2.901805227057014 -1.303849295045439e-15  -1.49151462119048 2.672152467473954 -1.310058669226415e-15  -2.060544264417673 2.226998819177283 -1.26770829937811e-15  -2.490597849836394 1.648059431419044 -1.090871473254302e-15  -2.762521638129055 0.9792537568384491 -1.07478019379801e-15  -2.869587986403181 0.2654535884299247 -5.958186341409656e-16  -2.790819697932767 -0.4534377540476012 -6.428741280558937e-16  -2.524264610283614 -1.129709323358416 -4.146294741174993e-16  -2.097398187160442 -1.715032065155234 -4.04872215525021e-16  -1.525879082477922 -2.173913446187152 6.595097013229443e-17  -0.865713975414197 -2.475575110664785 -6.930473733713376e-17  -0.1434744487259472 -2.596259174755677 1.271988617436317e-17  0.5895216901695169 -2.525693539695647 2.162785008655151e-17  1.274038678955273 -2.272742756900242 4.93064718220102e-17  1.884966983735159 -1.875889125058974 -1.580376469751856e-17  2.380053010210471 -1.350603853946815 -4.193651534150305e-16  2.759308298287324 -0.7348188706806946 -4.020779763192792e-16  3.005661596734104 -0.05810017832942614 -6.188446106415264e-16  3.11108389898777 0.6659481227414792 -6.300687048941316e-16  3.011004437174895 1.403966485921802 -1.046238955854926e-15  2.629556543074099 2.050361154604285 -1.262195213282277e-15  2.036164109747527 2.519344211043692 -1.276258209584431e-15  1.330094645086149 2.767183429745818 -1.322673664663324e-15  0.6105869137985374 2.874735302031927 -1.299857541744806e-15  -2.257897122188217 -0.7908988375549436 -1.801282697159226  -2.43172797504736 -0.3340576490273487 -1.892522309174452  -2.212370106912428 -0.69290876664901 -2.384283036935099  1.029359234737531 -1.361395713734361 -0.77166946390677  0.646807024981784 -1.405340045502118 -0.5608270813700874  -1.246918624257257 -1.299817480417597 -0.534240205981627  -1.122537032003445 -1.706338504008687 -1.114732474185854  -0.7039501351606644 -1.537767499581759 -0.6108622152000894  -2.109107981033075 0.6614083480149076 -0.541180327760812  -0.9600007269590922 1.91064154360806 -1.442541176844588  -1.454653104146407 1.993304188307896 -0.7928079115262571  -0.9085023319185968 2.352319940571544 -0.6907268748266352  -2.131502112092168 0.9608301610282073 -1.015868274954547  -1.8443097266717 1.529641537198709 -0.8514099417133911  -1.886304949606553 1.20539123021953 -1.576486106923393  -2.335228106379474 -0.3871503789300517 -1.266909001538943  -1.561335122175131 -1.465878520828898 -1.070303834123751  -0.9168311447581241 -1.924283399304537 -1.638440520544942  -1.506365039245867 -1.636540658136764 -1.734680381430139  2.469391082706601 0.5299921655362503 -1.506608319831984  2.254639040959524 0.4464797985504037 -0.7064768963545592  2.379928818099425 -0.03064655653162411 -1.254885757930861  2.552694304401767 -0.02341162623564158 -2.807423461849447  2.432230453111817 0.5451242297710858 -2.408603083460371  2.520722425173804 0.01704407178325804 -2.031370896221513  2.351308048060967 0.5309187266338696 -3.216105282172682  2.01897277375214 1.055425150028432 -2.773342546514839  2.04179564398312 -1.337243810353377 -2.389126624718015  1.955092938858117 -1.218105709459832 -1.779404774721092  1.566242343745122 -1.657579968565638 -2.038117971883515  1.369514541428711 -1.492175423598276 -1.297745287477429  -0.541160262832231 -1.886997451496542 -1.207655394344332  0.2977417574490203 -2.226905449487184 -2.883145782508526  -0.1702832555701323 -2.107157270260356 -3.527021983462876  0.4181564571877786 -2.169781244609407 -3.703190902920351  0.71407684811446 -1.760197100218491 -1.265939608550282  -2.07272116303754 0.971387238867674 -3.527695014018017  -1.790062438326625 1.306534569580968 -3.114344078680463  -1.548190319017463 1.325120260039724 -3.88851562599567  0.003340485236249212 -1.745642300166425 -4.93775198562518  0.5320557895572336 -1.907356211832667 -4.602675530633298  -0.03519678426757225 -1.928882399951191 -4.221358454576832  -0.3203859505798904 1.878799716672725 -1.836182051434369  0.1660252721409583 1.887681227272835 -2.021072524797567  -0.1759495533736696 1.751477239500037 -2.562535757878742  0.4419761240863069 1.750763562570212 -2.516057941417972  1.065367799626574 -1.864873576833245 -1.808561108471215  1.420565478438999 -1.034925969872506 -0.6010127644580862  1.787178018545775 -0.6552154806783349 -0.5567159382174893  1.800920985113103 -0.96650438812656 -1.071024379085515  0.9722666582515069 -2.043168946983038 -4.075670444962022  0.9131911513985398 -2.178801563627367 -3.190238957219852  0.6649652235932099 1.963295689433339 -1.85560249360006  1.255978727543775 1.824437444301304 -1.967505091466779  0.8995498583530421 1.71732731051278 -2.441300572907972  1.411482565563878 1.496159582083582 -2.58953434766967  -1.951467649183229 1.225136429936857 -0.4728847035888145  0.3587527349588383 2.394767736507653 -0.5749916064694642  0.9593091252529162 2.193206187591506 -0.696744971095915  -1.519074720831932 0.9992352450917994 -4.584207788219798  -1.844764992899313 0.5113513743937088 -4.580269381708884  -1.891162729205161 0.8812820157096933 -4.120619149625163  -2.189394989781131 0.4189002618372509 -3.880179119367357  0.8290202300611541 -2.087253381623958 -2.483529927387385  1.30250684588082 -1.942546037707556 -2.639265574283424  0.4762707462798421 -2.066707577835924 -1.925543066952092  2.144870291730516 -0.1010926225250799 -0.675169577884732  0.1244619135060876 1.643877477921556 -3.196670338252601  -0.4991169097454937 1.721101161115528 -3.24890891604326  2.57572076624519 -0.4517571285966752 -3.252354441726242  2.528889156366781 -0.03276083411212963 -3.668075233518507  -0.1591906003273029 -2.141214693549867 -2.204914681598473  0.03103166463593176 -1.959311322286756 -1.359840524494687  -2.319834876846582 0.2879476058757141 -1.112650825787448  -2.234015820147147 0.6653349221697937 -1.466561292884957  -2.428255996757432 0.1950171946050709 -1.834318128825924  -2.170192280420987 0.8260205533050637 -2.06238167560252  2.397116206655691 -0.4069403882939723 -1.716323802595178  2.16848615998806 -0.5026470634540718 -1.155086541739053  2.199530068987533 -0.7877306568305806 -1.61967048776399  2.473617698637444 -0.5859986209447036 -3.940489250501472  -1.169623112289362 -1.670597275148985 -3.023808629614791  -1.462182689192119 -1.552531313619793 -2.39274396303413  -1.781898484424641 -1.103976698809297 -2.862110060293518  -1.556719402503621 1.625464352319352 -1.34854648625873  -1.941959729846806 -1.170621480394206 -2.064273474839442  -2.003276643103522 -1.126862941696411 -1.297706148345896  1.799682941249883 -1.701790129542605 -2.881084100834031  1.484997889308873 -2.000683454728174 -3.440824353984495  2.276266764545275 0.9889167268853714 -2.058927613276276  2.437352664093693 -0.7353904881422277 -2.414618826358654  2.254390176540356 -1.294744094661412 -3.064472710204072  2.495557837803253 -0.8687057874912982 -3.341165603904623  -1.996051469150365 -0.6398502168002359 -0.6322788757412569  -2.142152819465511 -0.03629162758042845 -0.5545472563174247  1.729108155193106 1.738861731891437 -1.519878770122023  1.555526651897466 1.868561883746754 -0.7081206578655643  1.987833908433761 1.425983214087586 -0.757663504240594  -2.416151321618392 -0.1727621561216454 -2.502304412611614  -2.394838968185698 0.4576185104350496 -2.54207204460808  0.5414005461960959 2.20416222537293 -1.222499763101651  -0.321756210293699 2.475656625746997 -0.6034114123519708  -1.113299697436454 -1.456793794890379 -3.940523771039304  -0.7480548549166625 -1.870257869785148 -3.464434718110596  2.363243821027694 -0.1336686755998296 -4.490904370843681  1.156394101366976 2.043051525441107 -1.294763110915599  -2.360927316227282 0.5879085775219176 -3.211550770284687  -2.419501506040514 0.06606503891011037 -3.215471641303951  -2.161654441485493 0.9205975219296085 -2.805017585809903  -0.007722849170580973 2.323046111239702 -1.015945316358106  0.1032441075735475 2.081941123235583 -1.520651963996192  -0.6366493078837787 -0.946867887499359 -5.947505881863897  -0.02761159846552246 -1.405077501437818 -6.073795236991701  -0.5224576392757316 -1.428624947155865 -5.329820333125401  -1.534729561303678 0.629903841235145 -5.042692713678178  -1.696761741914977 0.2535227259892886 -5.021861662214435  -2.204942224264756 -0.5062903373888652 -3.104747210173597  -2.181068070495189 -0.2019583254803437 -3.73916806096902  2.255302555615907 0.9367653937854612 -0.8742377810885598  1.901707338206566 1.397558557072832 -2.113303082801707  2.198745081594682 1.240994526372467 -1.474476542088262  -1.23133023019064 0.3566841507113153 -5.568221590821667  -1.690990308705687 -1.086049907613142 -0.669011051
[...]
<PointData  Vectors="f_2165012-0"> 
<DataArray  type="Float64"  Name="f_2165012-0"  NumberOfComponents="3" format="ascii">2.5722904043287087e-01 6.6371212978681582e-01 0.0000000000000000e+00  1.4958964846704042e-02 6.0701546784636251e-01 0.0000000000000000e+00  1.0297020071082494e-01 7.3678014888207777e-01 0.0000000000000000e+00  -6.9483290712896759e-02 7.1516134385268759e-01 0.0000000000000000e+00  -2.3999829361589817e-01 6.4127276983513415e-01 0.0000000000000000e+00  -4.0187261929005302e-01 5.3697233835438807e-01 0.0000000000000000e+00  -5.1704929589989490e-01 3.7714322894906388e-01 0.0000000000000000e+00  -5.8062537884956766e-01 1.8389569057507588e-01 0.0000000000000000e+00  -5.8327490438262874e-01 -2.7056566865521860e-02 0.0000000000000000e+00  -5.3374675026122664e-01 -2.4804435511623302e-01 0.0000000000000000e+00  -4.2615140311061983e-01 -4.5997967216151914e-01 0.0000000000000000e+00  -2.6525767962583874e-01 -6.1569882199059900e-01 0.0000000000000000e+00  -6.9680544231442293e-02 -6.8526243676682563e-01 0.0000000000000000e+00  1.2200225660822758e-01 -6.5283483486067218e-01 0.0000000000000000e+00  2.8416839990170056e-01 -5.3085802742468202e-01 0.0000000000000000e+00  3.9932071825294013e-01 -3.5690822629488800e-01 0.0000000000000000e+00  4.5815917631580055e-01 -1.4664386814587421e-01 0.0000000000000000e+00  4.8273832413394852e-01 7.6348352074229894e-02 0.0000000000000000e+00  4.5257511727582689e-01 2.9929610009092750e-01 0.0000000000000000e+00  3.7799258371366473e-01 5.1047177968786428e-01 0.0000000000000000e+00  -1.1234370784512611e-01 5.5945548301076042e-01 0.0000000000000000e+00  -2.0603542689598300e-01 4.7755545436966357e-01 0.0000000000000000e+00  -2.7543927725396966e-01 3.9086644319470676e-01 0.0000000000000000e+00  -3.2295568065100777e-01 2.9508162192101423e-01 0.0000000000000000e+00  -3.5531131146457601e-01 2.0170276174166518e-01 0.0000000000000000e+00  -3.7553507268117781e-01 1.0251960544718673e-01 0.0000000000000000e+00  -3.7452906839549549e-01 8.8434503522636237e-03 0.0000000000000000e+00  -3.6537738942824266e-01 -8.6107289366427586e-02 0.0000000000000000e+00  -3.4392922470758980e-01 -1.9175336520280142e-01 0.0000000000000000e+00  -3.0422642737980737e-01 -2.8532487384851030e-01 0.0000000000000000e+00  -2.2813261100163679e-01 -3.6644390770896956e-01 0.0000000000000000e+00  -1.3575747467546995e-01 -4.2477218104886716e-01 0.0000000000000000e+00  -3.7172540087805440e-02 -4.4660959909670839e-01 0.0000000000000000e+00  6.9102445557863837e-02 -4.2680670326944342e-01 0.0000000000000000e+00  1.4889694071116899e-01 -3.6234642733708272e-01 0.0000000000000000e+00  2.1904347109085556e-01 -2.8103491740619407e-01 0.0000000000000000e+00  2.4901742707913505e-01 -1.8240895433769452e-01 0.0000000000000000e+00  2.5099680029419791e-01 -7.3410477332735632e-02 0.0000000000000000e+00  2.3406040417025001e-01 1.6307409445754657e-02 0.0000000000000000e+00  2.2926506371100769e-01 8.5558717653897415e-02 0.0000000000000000e+00  2.3984130452846605e-01 1.6661569851461888e-01 0.0000000000000000e+00  2.5775688403679176e-01 2.7911939019765569e-01 0.0000000000000000e+00  2.3269433049453739e-01 4.2983495307803210e-01 0.0000000000000000e+00  1.4654425783143882e-01 5.5975781008190972e-01 0.0000000000000000e+00  -5.3476464354015807e-01 -1.9534499898912849e-01 -1.9066642521893140e-01  -5.3200869445496368e-01 -5.7090213610269447e-02 -2.0653286229473355e-01  -5.3760756680195254e-01 -2.2943380268851846e-01 -2.7632945518488961e-01  1.8249625994450136e-01 -6.4700223630853448e-01 6.5886126981471579e-03  7.1436566209955407e-02 -6.9312328056496086e-01 2.0730261620758868e-02  -4.4752362765989140e-01 -4.4849703575118682e-01 1.8977386809796555e-02  -3.7832912254591744e-01 -5.3762873232321029e-01 -5.5152448667767917e-02  -3.1721353155715665e-01 -5.9658826186750347e-01 1.3396035502420823e-02  -5.3508348258510807e-01 2.4410729931731451e-01 -3.1226057920427250e-02  -2.4535839026655734e-01 6.8400444177428787e-01 -2.3544811550791686e-01  -3.1111449660721019e-01 5.7065044617360194e-01 -1.1266259640351627e-01  -1.7371522929039060e-01 6.6421378227991601e-01 -1.0483935961809764e-01  -4.8468033828218782e-01 3.2742581613776783e-01 -1.1076987823200797e-01  -4.0726073491163678e-01 4.6379851268413308e-01 -1.0711883280227792e-01  -4.4123528294945580e-01 4.3414037408733397e-01 -1.9651022000947746e-01  -5.4771263071224474e-01 -4.5778720392084644e-02 -1.1227578567335958e-01  -4.6292893961365117e-01 -4.1227374733383659e-01 -5.9742851953960611e-02  -3.2270610710233161e-01 -5.9871023970760751e-01 -1.3406436651897052e-01  -4.3958266696922993e-01 -4.8232737006534648e-01 -1.6496130673221415e-01  4.8046823530734661e-01 5.7052275532393830e-02 -1.2504252033683624e-01  4.7864801172000726e-01 -3.4182352487938737e-02 -2.7546195225616042e-02  4.7774934000103320e-01 -1.3551416488206217e-01 -7.4841684701651506e-02  4.9764184645766441e-01 4.0960453497594716e-02 -2.6137862995414785e-01  4.8041615966101064e-01 1.7750602571648685e-01 -2.3880527757818862e-01  4.9406401117074639e-01 -3.6266982013421642e-02 -1.7389769847345665e-01  4.6949672372718604e-01 2.6205075599166988e-01 -3.3062116016587151e-01  4.1911674126347948e-01 4.1948244861270834e-01 -3.1605474603048467e-01  3.9982811914238414e-01 -4.2070133999282677e-01 -1.8637021798623848e-01  3.8302554942276779e-01 -4.5057518930856161e-01 -1.0898202702232537e-01  2.8872728345954896e-01 -5.6548975733447748e-01 -1.4019141058887979e-01  2.5042709552477138e-01 -5.9786810580858085e-01 -4.4667820170797984e-02  -2.4687451153246567e-01 -6.4319367813407924e-01 -5.5888448401600066e-02  -2.3675851873280362e-02 -6.8720766416829082e-01 -2.8956790255671094e-01  -1.2962971762231079e-01 -6.7797430945066006e-01 -4.0343454204753609e-01  2.4195967074305529e-02 -6.5928255474694941e-01 -4.1081586866360043e-01  8.5402585410733589e-02 -6.8958813213202974e-01 -4.3372640572180578e-02  -4.1335218314130517e-01 2.2920794443983966e-01 -4.1986217273939463e-01  -3.8505306288937735e-01 4.0114733226112181e-01 -3.7224566498619116e-01  -3.4576117431302622e-01 3.7374524474813908e-01 -4.7793075921058759e-01  -4.3931282897879093e-02 -5.9621704409147969e-01 -5.7524140591539230e-01  8.4282309869999905e-02 -6.0574924234410099e-01 -5.2214402441973773e-01  -8.2683580903463630e-02 -6.5782898581895988e-01 -4.9947775821247964e-01  -1.0320930211780961e-01 7.7600352285475316e-01 -3.0343058452238331e-01  1.5815167319279132e-02 7.8732349040461436e-01 -3.1849580351923445e-01  -7.4382274145033109e-02 7.7380670803636886e-01 -3.6759174675467349e-01  8.4252221235595143e-02 7.7354472113723960e-01 -3.6586751208181117e-01  1.6377890988940649e-01 -6.5309820329585266e-01 -1.1428046710235926e-01  2.9091069928209345e-01 -5.5628504758032216e-01 6.7307452370747832e-03  3.8258427047243809e-01 -4.2551196337870700e-01 5.9825992775981657e-03  3.7353640985309183e-01 -4.6450632557921129e-01 -2.6772321228274568e-02  1.7865693081640446e-01 -5.8448384821430410e-01 -4.4534511934954640e-01  1.3189980907791996e-01 -6.3606689825762008e-01 -3.1912317733812867e-01  1.4305140807146657e-01 7.4075876043765954e-01 -2.8454942648452530e-01  2.7244199489878851e-01 6.3513391276859732e-01 -2.7129058325115213e-01  1.9477719144488084e-01 7.1851607163962217e-01 -3.4811477557015102e-01  3.1096882920951713e-01 6.1517727842355319e-01 -3.3798705648916821e-01  -4.7345351234109928e-01 3.8946280918242721e-01 -3.9231460342044416e-02  1.3860412089709984e-01 7.1192800946588242e-01 -8.4278487316363226e-02  2.6187905144866863e-01 6.3168155889591826e-01 -8.7467871825235965e-02  -3.5489776950404739e-01 2.2787797949666330e-01 -5.5581253452812851e-01  -3.9386544407387841e-01 3.9333024905703437e-02 -5.4392142659042564e-01  -3.9721339080200291e-01 1.7654747743766569e-01 -4.9459965356561314e-01  -4.3775463720064023e-01 2.5071318486166956e-02 -4.6131307469738175e-01  1.0793972483510403e-01 -6.7200684268379274e-01 -2.1419692771009105e-01  2.2664266717657128e-01 -6.0834322987006362e-01 -2.2610225059219580e-01  1.4207057611563505e-02 -6.9828963181092407e-01 -1.4149278730373896e-01  4.5930945882482832e-01 -2.2075176151770473e-01 -1.1910811038597561e-02  1.2400453581163063e-02 7.6089169280448576e-01 -4.2698272105196050e-01  -1.3992014511727552e-01 6.9644571015702716e-01 -4.2301362858723085e-01  4.9350705736544209e-01 -5.0615352335290131e-02 -3.0492807519684567e-01  4.8661199155173085e-01 1.0204017468765238e-01 -3.6254623498089250e-01  -1.4444450195309780e-01 -6.9148102089469421e-01 -2.0070132313457145e-01  -9.9030892303899942e-02 -6.9537525352152318e-01 -6.6440588023256225e-02  -5.3430623587895743e-01 1.4817735437085419e-01 -1.0315001668590135e-01  -5.0780436979156618e-01 2.5671844813446859e-01 -1.6095811074313224e-01  -5.2110094729121259e-01 1.0244545410465591e-01 -2.0073015169671021e-01  -4.7884190209665989e-01 2.9731420413618520e-01 -2.3539013858174376e-01  4.7467475230696832e-01 -1.9919027546603066e-01 -1.2139714419933055e-01  4.4656036258996662e-01 -2.9910711010623203e-01 -4.7689240526439490e-02  4.3997108010607527e-01 -3.3177216949583993e-01 -9.8077903524469254e-02  4.9032513520217996e-01 -5.3408157110459265e-02 -3.9188011393529210e-01  -3.8606055517267546e-01 -5.9126235489687073e-01 -3.6024750873127126e-01  -4.4725837948589764e-01 -5.2210746446934575e-01 -2.7380605386962592e-01  -5.0646824416087799e-01 -4.2411596236965565e-01 -3.4705442555197685e-01  -3.6989253863449117e-01 5.4827639510457316e-01 -1.9602175444112929e-01  -5.1750832316442297e-01 -3.5742942948361961e-01 -2.2663729438873426e-01  -5.1834421720667123e-01 -2.7887789014187919e-01 -1.0704649356324447e-01  3.4108351417896632e-01 -4.9003619172894031e-01 -2.5527948753413066e-01  2.6903032964028017e-01 -5.3336393273517657e-01 -3.4335300945512798e-01  4.5507445829407978e-01 2.7703209973140402e-01 -2.1730384889073565e-01  4.7233851167653873e-01 -2.1955137543045769e-01 -1.9991240670548094e-01  4.3033817225976240e-01 -3.2792733671665791e-01 -2.7852727970721425e-01  4.7386184255752856e-01 -1.6817848909400571e-01 -3.1472633827587165e-01  -5.5529938558717917e-01 -1.4107548224889163e-01 -1.3688280588391289e-02  -5.6671158791250864e-01 4.8625983956164069e-02 -1.5715398245281016e-02  3.6527052138506361e-01 4.7863825882066241e-01 -1.7840910412955549e-01  3.7212160630950419e-01 4.7155628621700230e-01 -6.8430907558702084e-02  4.3662852527872820e-01 2.9454356060822762e-01 -5.6480274508611462e-02  -5.2025241603472983e-01 -6.1324792768541608e-02 -2.8625684187771372e-01  -4.8792923403040650e-01 1.3361165500068903e-01 -2.8978752187521734e-01  1.3919445797912797e-01 7.2485271371027038e-01 -1.9424326774863598e-01  -2.7078916422929724e-02 7.1725048448573425e-01 -9.4177061411255827e-02  -3.6221796400982664e-01 -5.7362135452145702e-01 -4.9349412924046471e-01  -2.8043266574333731e-01 -6.4691789305342651e-01 -4.1367478687879206e-01  4.8142365676444610e-01 9.8884480143514072e-02 -4.5672788039398060e-01  2.6886855717080571e-01 6.2428447458698755e-01 -1.7658746656093371e-01  -4.4903883163300634e-01 1.1488036802474509e-01 -3.7291486498834647e-01  -4.7841126472744511e-01 -4.2160347742451365e-02 -3.7500088045570729e-01  -4.4900309855139742e-01 2.7049202489310248e-01 -3.2458052070925619e-01  2.3037330831723705e-02 7.4541148227229248e-01 -1.7122186868986763e-01  1.5671669367255343e-02 7.7405628115936387e-01 -2.5695203244046538e-01  -1.6005172873715906e-01 -3.3413386126547123e-01 -7.0472513293377459e-01  1.3484934480762511e-03 -3.9278768045277873e-01 -6.8067452241878312e-01  -1.5528258027497785e-01 -5.0405969051134247e-01 -6.3747506105733842e-01  -3.4884466246121582e-01 7.6771740746972697e-02 -6.0064408603242825e-01  -3.6188820866681876e-01 -4.6763193121632143e-02 -5.9192340932235377e-01  -5.1387432260717858e-01 -2.2628304618190928e-01 -3.7130945104914681e-01  -4.7542961174733822e-01 -1.5454597650970919e-01 -4.5172560626384656e-01  4.6549927675294822e-01 1.2886812148644297e-01 -5.9506337007087400e-02  3.9456494752103388e-01 4.4997014324510354e-01 -2.5145622968994430e-01  4.4010065835100537e-01 2.8208637498619443e-01 -1.4516291686548657e-01  -3.0329287562790058e-01 -2.5273158521836041e-03 -6.6446895513280524e-01  -5.1281330669402303e-01 -3.0591696423765485e-01 -8.8571693572257505e-03  8.4377468236229450e-02 7.3642460140391264e-01 -4.6830347786359328e-01  2.4321059210903298e-01 6.6069234077204786e-01 -4.6065597343863324e-01  1.1483322645938279e-01 6.6279819451399158e-01 -5.2620781358088387e-01  1.7857131852960836e-01 7.3067417855218675e-01 -4.1495638425423265e-01  2.5856834517987093e-01 -4.7722936664803417e-01 -5.3145107249795198e-01  -4.1819800791961192e-01 4.3873436712133163e-01 -2.8059801399321904e-01  -2.8540951146788087e-02 -7.0387321994993979e-01 7.2942253266127018e-03  -1.6744827430593351e-01 -6.8084033887817685e-01 1.6489612105865015e-02  3.8853793743979992e-01 -3.8900060712548840e-01 -3.6970568678246013e-01  4.5802088321200463e-01 -2.3474725466437993e-01 -3.8684083555491550e-01  -1.0529187312729367e-01 7.3797569051518974e-01 -2.1336064871233285e-01  1.1760779231328310e-01 -5.1004449281724118e-01 -5.9718037212016883e-01  3.2938434515670467e-01 -4.5404835753220102e-01 -4.5600742351107670e-01  2.9108596860384894e-01 5.6667148195466011e-01 -4.9638227528854767e-01  3.2130034291911042e-01 6.0769931934354693e-01 -4.0983455941803693e-01  4.0421589968319560e-01 4.5225370014976429e-01 -4.1650228096553144e-01  -2.3519342547557315e-01 5.5913626002234851e-01 -4.8669348252069466e-01  -2.8364239449098189e-01 5.6925309616516351e-01 -4.0096927186754311e-01  4.2255726938164478e-01 -2.9760562953209330e-01 -4.6575226352591731e-01  1.9348742810616901e-01 3.7980259604981015e-01 -6.6944004834157000e-01  3.7676031898824608e-01 2.5068950129946888e-01 -5.9325375754629583e-01  2.4028019137514253e-01 2.5789026142169108e-01 -6.7900419192764816e-01  -3.5916841633714697e-01 5.8001590791210988e-01 -2.6777625292887447e-01  -2.2620320598049529e-01 7.0475408517204996e-01 -3.2754996144140269e-01  3.3424787003007617e-01 3.7664428426434293e-01 -5.7848597747153874e-01  -3.3144847675617317e-01 5.7647051109841996e-01 -3.2567856876132312e-01  -2.2499059787938341e-01 -6.5835593978331763e-01 -1.3813505180317162e-01  -3.2231205903837296e-01 -6.2184317310657478e-01 -2.4057520923960060e-01  -6.7524400968637507e-03 -2.1611999513837010e-01 -7.3400368573993791e-01  -8.3801667607042413e-02 -2.8499984959891411e-01 -7.2759503489626531e-01  -4.4852622924157926e-01 -5.0523158742398422e-01 -4.2535099781901153e-01  -4.7716861680794492e-01 -3.8822018373025019e-01 -4.6005484979513334e-01  -2.2281357196563045e-01 -6.7343193731922391e-01 -3.1556356046651263e-01  -2.2262993326388275e-01 -6.5105369408091351e-01 -4.8058263249840433e-01  -2.0857164071730550e-01 -6.0998631238804313e-01 -5.5571290439662280e-01  3.9159313519825623e-01 4.0114489144348009e-01 -4.9653407545522182e-01  4.3842435339960073e-01 2.4821939407459689e-01 -5.0989165445457352e-01  4.5859070442280803e-01 2.6209149596002623e-01 -4.1875061768316024e-01  -4.0394216714936687e-01 -4.0059478725881997e-01 -5.5889699658288383e-01  -3.0182559231416545e-01 -5.1868228627997492e-01 -5.8643520977732744e-01  -2.9715793803412843e-01 -3.7021615508135619e-01 -6.4109271384661015e-01  4.8241422578643151e-01 -1.0984113668212070e-01 -4.7179978836279213e-01  -5.6773159255954844e-02 6.7114590741754521e-01 -5.1604233350753204e-01  -3.0176364414875267e-01 2.0742680691965384e-01 -6.2899545556564496e-01  2.7087129360233819e-01 1.2574926430671027e-01 -6.5977223221201498e-01  8.0021713031231873e-02 1.2229063723658651e-01 -7.2999163778465026e-01  2.5266730936749926e-01 -1.4047592320643371e-02 -6.5466873814806514e-01  -2.7468569969775203e-01 3.9675461863664424e-01 -5.7403242698146173e-01  -4.4954266150429423e-01 -2.7465471082999149e-01 -5.0986844853988533e-01  -4.0791450858299677e-01 -1.6567187815408424e-01 -5.4542350499135583e-01  -3.8095271142400045e-01 -2.8191296737805632e-01 -5.8731887050347109e-01  -3.3282729941975731e-01 -1.8575255684055797e-01 -6.2281976571447240e-01  -2.3085462862532288e-01 3.3888207585436603e-01 -6.4830290914617295e-01  -1.5494388975350640e-01 4.9879136547715930e-01 -6.0602950123322608e-01  -1.3199166815698077e-01 3.9250938085843839e-01 -6.9053227281388985e-01  4.6452421519877624e-01 8.1390408681392995e-02 -5.2988910686954371e-01  -2.3959306476948805e-01 2.2183890774802068e-01 -6.9425703643183179e-01  3.9575908999898940e-01 1.1340922017456836e-01 -6.0053133432092864e-01  4.4687418300445547e-01 -1.0333313567533037e-01 -5.5233467492242905e-01  -3.4653441271270667e-03 5.5313985565821910e-01 -6.1475255567619225e-01  1.4878701323838353e-01 5.6302006436648255e-01 -5.8360941816627232e-01  9.1806932586982040e-02 4.8062606532515767e-01 -6.5092187139192248e-01  -1.6739921864193716e-01 5.5784242481661250e-01 -5.5101371978442359e-01  2.7754538732653422e-01 -3.6555537631962065e-01 -6.0110664620297960e-01  1.8541602676448976e-01 -3.2889350850938698e-01 -6.6349286412231900e-01  -5.0389334424553144e-02 -4.6578962751774970e-02 -7.3740643215939539e-01  -5.3106976747029459e-02 1.3628063488154255e-01 -7.6075847384857265e-01  -2.4706084555387989e-01 -2.0092101608274174e-01 -6.8342960720126233e-01  -1.5349054941255544e-01 -1.5056123078135947e-01 -7.3637471720651726e-01  -1.1023164392324167e-01 2.0553957512366192e-01 -7.5943692007646013e-01  -2.9509559983068263e-02 3.7285746019867422e-01 -7.2942972544360185e-01  4.3495406663999599e-02 2.7770387306764505e-01 -7.4747559753124082e-01  3.5453759078624714e-01 -3.8444981921520416e-01 -5.0726359032500223e-01  3.8400595147284966e-01 -2.9005556408986266e-01 -5.4328222869490528e-01  -1.5715896808756022e-01 2.6887480112952278e-01 -7.3570374509226621e-01  2.5635856930210654e-01 4.7854128255697082e-01 -5.8112075976274769e-01  4.4641906165786055e-01 -2.1417086185183534e-01 -5.0391472312700381e-01  -2.1542795029170109e-01 8.3134701665204438e-02 -7.3336259500745893e-01  -1.3544613626801668e-02 4.5964431434706471e-01 -6.7328098717569274e-01  3.5042638374906854e-01 -1.9329328400839529e-01 -6.2035438228117490e-01  -1.3525951519642324e-01 4.2313397485596198e-02 -7.4921960311256952e-01  -2.3864291913614891e-01 -7.6699919866772728e-02 -7.1021329813572442e-01  1.5590640189991947e-01 -1.8608265166214968e-01 -6.9316327118642096e-01  7.6132402483735540e-02 -7.2081748532887624e-02 -6.9981661300355624e-01  2.4983501593991284e-01 -1.6665994252616290e-01 -6.6606712190027295e-01  3.7609183700455001e-01 -1.5932662361583146e-02 -6.2544739711678465e-01  -2.4906011424443066e-02 -5.1587978628757969e-01 -6.2876488453683066e-01  7.6930868821659573e-02 -2.9502104251730293e-01 -6.9509678456689938e-01  -3.2456598281495241e-01 4.2242608837672561e-03 -1.0466516484981013e-01  -3.3013073277939009e-01 -4.9429280583233953e-02 -1.0507668414275433e-01  -1.0186956654714049e-01 -3.5927951379976231e-01 -4.8432803066733643e-01  -1.2001590999966032e-01 -3.7938958311220899e-01 -4.2729563339848031e-01  -1.5797665884398143e-01 -3.4703013449742165e-01 -4.4701663421850224e-01  -3.7796218250678700e-02 -3.8358250652824910e-01 -4.6400913609668021e-01  -2.2383128001547271e-02 -3.6145077153950095e-01 -5.2239815705388171e-01  -5.7539151034530604e-02 -3.3407863471436777e-01 -5.5004313297874718e-01  -1.6066412828442309e-01 -3.0904035071841435e-01 -4.9236810766600980e-01  2.5991109628686421e-01 2.7920036809470189e-01 -7.9459340617970678e-02  2.4601754385806571e-01 2.7791720269312592e-01 -1.4120982957336856e-01  2.2805719294331867e-01 3.6851449971435923e-01 -1.1944890675846373e-01  1.9770110082206926e-01 3.4686011268675060e-01 -1.9662059425323319e-01  -3.2579416932265887e-01 -1.5497958699645559e-01 -2.4143853755021322e-01  -3.2752125924383824e-01 -6.1297576122895964e-02 -2.0116396077646972e-01  -3.0771534390861655e-01 -6.3858572340926067e-02 -2.5544514322547185e-01  -3.0267466838713342e-01 3.3633670595240471e-03 -2.1373653701759096e-01  -2.1830573173076118e-01 3.3875073706906750e-01 -1.6119021615394710e-01  -2.5312151280658329e-01 3.2614372063959002e-01 -1.0321158917231063e-01  -2.1581964238936960e-01 4.0771783227677744e-01 -8.0585746237891775e-02  -2.6925485247337760e-01 5.9628576118043973e-02 -2.3665230302592380e-01  -2.9227747472971449e-01 6.1554262189452653e-