<?xml version="1.0"?>
<VTKFile type="UnstructuredGrid"  version="0.1"  >
<UnstructuredGrid>
<Piece  NumberOfPoints="611" NumberOfCells="1825">
<Points>
<DataArray  type="Float64"  NumberOfComponents="3"  format="ascii">0.2583389425879689 2.393960571061689 -1.325938683118817e-15  0.1801693448781319 -2.627318599842267 4.105169877195705e-18  -0.4483206071528326 2.396905935533606 -1.327054161197796e-15  -1.061281247056175 2.051479038161304 -8.900069002928013e-16  -1.504996553019976 1.500565168766995 -8.715662986331965e-16  -1.697709389546515 0.8175978000634208 -8.842700729031526e-16  -1.698219860015713 0.1096386772310876 -4.42842314958252e-16  -1.47096956093779 -0.5505162840558364 -4.437650685950173e-16  -1.000430676183777 -1.061038590741962 3.511758485850366e-18  -0.378263640774479 -1.365365923682071 -3.148722361678575e-19  0.3128436484719645 -1.418895143532383 3.289638091676954e-18  0.9843230456691225 -1.223931332893717 -8.447558409495765e-18  1.5399347664207 -0.7999814144212032 -3.206996876726538e-18  1.911198017455007 -0.2080584117349615 -4.435305983441766e-16  2.040075764137884 0.4775854443795295 -4.425739009110362e-16  1.88768850190254 1.15901832569197 -8.821771428940684e-16  1.498665835972614 1.739144922177822 -8.873596469708719e-16  0.9394978082280312 2.179398520228987 -1.330640847857959e-15  0.9345359537792836 -2.537421354390293 7.418486844231316e-18  1.636741612889516 -2.240113741107513 6.946569723183805e-18  2.243850699515507 -1.77633826360736 -6.051610781647627e-18  2.723408982199321 -1.18006955264559 1.99037566549362e-18  3.045553293099597 -0.4877375850250099 -4.256648953837635e-16  3.191573450333817 0.2672625708085854 -4.482550350441521e-16  3.12096347221212 1.039017457318743 -8.871054569244695e-16  2.790361034288392 1.742119426127402 -8.707344108676273e-16  2.244499660423709 2.292098314656749 -1.313074286682789e-15  1.583947211612316 2.677080412229866 -1.281369464326917e-15  0.8712623933310609 2.920620621348174 -1.308520316035157e-15  0.1329976800082554 3.071622273574537 -1.314946909014179e-15  -0.6278629881214752 3.066487853783481 -1.302914519819588e-15  -1.343017942002372 2.799325530535386 -1.273340670633664e-15  -1.94233219288665 2.329568605526498 -1.310900228241784e-15  -2.387816591272106 1.709480329380609 -8.711151809620607e-16  -2.662223284161411 0.9982451040370647 -8.793327538315848e-16  -2.771006642546539 0.2426866400488519 -4.274779215364581e-16  -2.6558246136654 -0.5128105358950418 -4.326474074969197e-16  -2.350978572697836 -1.210214569290144 3.402515235457987e-18  -1.883026285742716 -1.806586313897979 7.876489159224989e-18  -1.277837201982291 -2.262655748945119 5.652641386535907e-18  -0.5735409378640683 -2.543271451752851 1.007172087103212e-17  -1.933187917568989 0.2268020958193415 -0.588666383916734  -1.877140494777568 -0.3690870494772373 -0.6286464798588504  -1.135760065781749 1.992872828191992 -0.839757162864057  -0.6707873107343448 2.291001705476036 -0.6696315489453951  -1.76543641250271 1.144055866722369 -0.6383754312956939  2.214098722957625 0.8187268397812953 -1.547336597078232  2.041607017797622 1.291990763033748 -1.077440820135716  2.19469778508567 0.741059988051667 -0.650559085862174  2.314055420194408 0.2638495169556939 -1.30113402839909  2.261952895237029 0.2595088457874108 -1.941149404223085  -1.376406691193138 1.648079336548331 -1.490095527768412  -1.502250002436587 1.623694819914155 -0.7367834679751738  -0.8643225248631029 2.024512110439325 -1.413039361456902  2.185671622555947 -0.5069115502342476 -1.586433980241991  1.807765759007354 1.418697168490497 -1.838380943905123  1.169299698359024 1.830191454513359 -1.998370566327197  1.580968536648445 1.821944709790132 -1.061885685228638  1.887355236551721 1.433802992270099 -0.5322198604035755  -1.798548082106174 -1.27765319553749 -2.938374706183359  -1.872307330010137 -1.213720674965606 -2.392500820420868  -2.078705292159434 -0.8129411765193618 -2.825906799943614  2.155413905940595 0.208494977108602 -2.592049059830531  2.167267529844552 -0.3303196387466329 -2.30265202435247  0.8136759984875589 2.14053868904145 -1.4375117639973  -1.187616877958379 -1.766533124774707 -1.520325085786566  -0.6672713498734387 -1.728060907868008 -0.7356186292019407  -1.23948034680907 -1.446580300811396 -0.8039995813533694  0.1247106479983417 -1.939871630743635 -1.031008292533826  -0.363135220883431 -2.055554802626479 -1.552139998653378  2.197406150526536 -0.006376131618556068 -0.6954546610900588  -1.57602892691451 -0.9573599874136364 -0.6076286212599101  1.401268975455655 -1.255791187207712 -0.6403799603371557  1.792533559543094 -1.216532009642816 -1.364845105534309  1.931003472488909 -0.701832353665832 -0.7356536066816721  -1.969096502590781 0.6085759848860325 -0.9574373088666627  -2.123961815980909 -0.1467569003743674 -1.342437767090212  -2.030781859433345 -0.9023823363813455 -1.90807978617303  -0.08881449926931065 2.436417726411905 -0.5466601760561914  -0.3133161413059909 2.256197174210051 -1.287976252289489  0.6621513658302089 -1.661044358426948 -0.6496440834110696  -0.006294773072249432 -1.651647241672842 -0.4162390296736277  -1.801879616387036 -0.686705750758137 -4.382622653383312  -2.115477425341077 -0.4394937044659428 -3.662364105098477  -2.008722551956415 -0.1014993327947476 -4.46748196495492  1.163228128265069 2.124743169604626 -0.665850152082939  0.7971411586580816 -1.9567091292103 -1.429959805638307  0.1809300151811844 2.099254384242204 -1.871359350622229  -0.2916948946913679 1.951106019731237 -2.581641347890363  -0.5137221577768013 2.011826959527683 -1.927629719591355  -1.42056859971445 0.8884015351318231 -5.582169233971245  -1.712672471766434 1.061544923234043 -4.680597567489586  -1.167166422875511 1.40907286692427 -5.132504332688295  0.5820941125840251 2.361058722870335 -0.7061301658318337  -1.689733662365147 -1.268804585967979 -1.330611500146642  2.324190301551352 0.3519705032771718 -5.209911985790178  2.370728229439892 -0.09303806096494151 -5.47061942299628  2.387933648842658 0.3358761009107655 -5.931829170717718  0.8282588789852434 -1.848471975153985 -5.456813865541358  1.438475406923481 -1.689353830860338 -4.994383060186033  0.9542331551252122 -2.002222475223911 -4.57345836101461  1.389076617599669 -1.810261059458059 -4.131800682798892  2.266372456090543 -0.003095070764639543 -4.774690359038823  1.889774189410506 0.8941034367076622 -6.830551681976267  1.74935083831559 1.216948650338935 -6.11619161409731  2.187913472863288 0.739196969866068 -6.297673185201175  1.399763352693918 1.472632715247339 -2.674330604341936  1.980998381818966 0.9321343173783928 -2.381847659125193  -2.063139283021063 0.5096932090300365 -4.426768714037554  -2.03820769837883 0.9110923212354372 -3.986759384653426  0.6024082888021847 1.861805628680209 -2.557568688136719  -1.785782092916012 0.3264752181493072 -5.118283304554112  -1.056295468876968 1.786096243594844 -2.238265682142459  -1.578779347514237 1.412969371906388 -2.115665051414343  -1.834100546354432 1.075693575433973 -1.405576647463662  1.298827420225262 -1.635110897022116 -1.228696580409661  -0.7812425525732105 0.2942715356591073 -6.743260180009056  -1.058858191901793 -0.2692683064546093 -6.32498914673958  -1.196452234508784 0.3856231207499037 -6.231013325465653  2.134839014201066 0.849041242046352 -5.558534017548555  -2.120105078714231 0.4311398158773525 -1.77143682123801  -0.8542040782763403 1.831828858048296 -3.892576240229998  -0.2931361866694429 1.887902446478513 -4.108596972089127  -0.7319900893392209 1.750401265524591 -4.620177890154403  -2.23017266734194 -0.1856158196507177 -2.14993077170125  -2.29268393364352 -0.06592648516060425 -2.924011469609024  1.938025544606096 -1.143353650906187 -2.22456519106995  0.9797278966922995 -2.092849751638894 -2.258118748480634  1.517330660369395 -1.663476990955169 -1.848812384906853  -0.2765576724705483 1.916193922345781 -3.438649348467029  2.029498514296555 -0.7477970483590834 -2.899454793106895  0.5138683455672779 -2.278083492149732 -2.883724263066981  -0.1761313362870778 -2.232310415340551 -2.514741321499283  0.009649685228779514 -2.29981080504214 -3.407438860334778  -0.4415073279080709 1.701219920914069 -5.393545548639737  -1.482518998160213 0.08744829280883905 -5.726779297667834  1.754364637752489 1.020333458095984 -3.365823746173453  1.263628504119695 1.472937755166332 -3.746417274898529  -1.965183107142871 0.8989598480935207 -2.086405049761632  -0.9063301165985154 1.839010037274714 -3.069453210792981  -0.1051549632589404 -1.116206657592683 -6.673194059271084  -0.310461522025766 -1.460155840451389 -5.918220502563463  -0.7096243218584027 -0.8951163374804078 -6.302600148089984  -1.449790316672503 1.58271473316836 -2.877149676331612  2.089338087352201 -0.2133490616799403 -3.167793785327406  0.335847480841061 -2.161582792477952 -1.912802939625656  1.145514128717937 -2.046413829655998 -3.2511551502609  1.549586547391928 -1.713278216685141 -2.716719882764479  -1.370861376190968 1.640729163618126 -3.701554072108829  1.841081996163021 -1.235035554293088 -3.170701228287669  2.055056640330321 0.3983653290498847 -3.392680793926798  2.123328287204854 -0.11904951580655 -4.013662295084908  2.140272571379279 0.4619368939779117 -4.204111134882807  0.2113578820139272 2.301925251889513 -1.239912019040686  -0.8580608485867126 -2.008970723180946 -2.29448549355011  -1.952366728801882 -0.779751316145195 -1.192517011971715  -1.851680549840856 1.195421920186661 -2.65764481666917  -2.230337853509789 0.2791090497853628 -3.725338340688082  -1.710114614246783 -1.378313528820706 -1.912901941119718  -1.476247078859976 -1.64666306842002 -2.481423564402032  2.002887267381108 -0.7617414585709251 -3.756554894582864  0.6798583619865076 -2.206060280662393 -3.916175356823575  -2.199650160270786 0.4665154017349176 -2.440678031311438  -0.9357736183095403 -1.150680159045708 -5.558335084128475  0.1251380871410079 -2.214739780127841 -4.056622716694733  -0.4272843501784482 -2.062761868971776 -4.141440698847221  0.300097371740525 -2.083930707944031 -4.686966282926516  -1.515404396397428 -1.1692667785
[...]
<PointData  Vectors="f_4786318-0"> 
<DataArray  type="Float64"  Name="f_4786318-0"  NumberOfComponents="3" format="ascii">5.1615764804821995e-02 3.3586418974847521e-01 0.0000000000000000e+00  -1.6129495335953131e-02 -2.2614085323647323e-01 0.0000000000000000e+00  -5.3857596068813192e-02 3.1831847286037396e-01 0.0000000000000000e+00  -1.5804040601672886e-01 2.7958413495666945e-01 0.0000000000000000e+00  -2.4368445260666843e-01 2.1074207141721432e-01 0.0000000000000000e+00  -3.0547352655529392e-01 1.1678808252804734e-01 0.0000000000000000e+00  -3.2251253467512658e-01 6.9685419137079461e-03 0.0000000000000000e+00  -3.0182190759511213e-01 -1.1220049079850047e-01 0.0000000000000000e+00  -2.4140900591586656e-01 -2.2400911749398369e-01 0.0000000000000000e+00  -1.4485114852894879e-01 -3.0280029005008374e-01 0.0000000000000000e+00  -2.6943598819862250e-02 -3.3672042317299128e-01 0.0000000000000000e+00  8.9535530822546713e-02 -3.1396951417212410e-01 0.0000000000000000e+00  1.8482709027200711e-01 -2.4570515814072097e-01 0.0000000000000000e+00  2.4467273118851243e-01 -1.4389882530891196e-01 0.0000000000000000e+00  2.6543547602682360e-01 -2.3463447644341558e-02 0.0000000000000000e+00  2.5367558657273304e-01 1.0121070368514365e-01 0.0000000000000000e+00  2.1353863688524266e-01 2.1763567611123183e-01 0.0000000000000000e+00  1.4494556675610373e-01 2.9915673124038250e-01 0.0000000000000000e+00  4.0141286545782473e-02 -2.0988150988351795e-01 0.0000000000000000e+00  8.8015564982142400e-02 -1.8111505574437459e-01 0.0000000000000000e+00  1.2228165849826389e-01 -1.4157104257643682e-01 0.0000000000000000e+00  1.4317756109155391e-01 -9.4744028051199511e-02 0.0000000000000000e+00  1.4967085084599960e-01 -4.1244071936000132e-02 0.0000000000000000e+00  1.4397748603807276e-01 5.2988327879947760e-03 0.0000000000000000e+00  1.3601428149970182e-01 4.1204233990674445e-02 0.0000000000000000e+00  1.3446177932550163e-01 8.0010014292156775e-02 0.0000000000000000e+00  1.3302843761969041e-01 1.3343897586163855e-01 0.0000000000000000e+00  1.0914966823979162e-01 1.9627747574953067e-01 0.0000000000000000e+00  5.3320621669277923e-02 2.4365253074667861e-01 0.0000000000000000e+00  -1.7295826668922178e-02 2.4666189952821618e-01 0.0000000000000000e+00  -7.5261234048765599e-02 2.1517682577224923e-01 0.0000000000000000e+00  -1.1947901460951736e-01 1.8041360202382217e-01 0.0000000000000000e+00  -1.5657571379670990e-01 1.4191812617205801e-01 0.0000000000000000e+00  -1.8483375383398623e-01 1.0029683558588712e-01 0.0000000000000000e+00  -2.0603980844595987e-01 5.2635359524109533e-02 0.0000000000000000e+00  -2.0918502555386728e-01 -9.9529714664078743e-04 0.0000000000000000e+00  -2.0577958834997920e-01 -5.2027643566289819e-02 0.0000000000000000e+00  -1.9125486434376038e-01 -1.0469353034185531e-01 0.0000000000000000e+00  -1.6217253111354685e-01 -1.5299578673813946e-01 0.0000000000000000e+00  -1.2162707530538704e-01 -1.9155199915729379e-01 0.0000000000000000e+00  -7.1471114209697720e-02 -2.1795476375360301e-01 0.0000000000000000e+00  -3.1343363421799902e-01 1.7270316302813886e-02 -1.0865714359452763e-04  -3.0553710208762280e-01 -7.1316682041241350e-02 7.0017021169370272e-03  -1.6812226007495287e-01 2.5743544443884758e-01 -3.9192970942016681e-02  -1.0225426189227613e-01 2.9815942743385587e-01 -3.4040530243351672e-02  -2.7365606745579790e-01 1.4543676845132447e-01 -1.3899296259647104e-02  2.4685952259403249e-01 8.5645215631752925e-02 -6.0163891472137188e-02  2.2550173876223376e-01 1.4094031196917881e-01 -3.9381367544637176e-02  2.5617146718655381e-01 4.8544854961245047e-02 -1.1208751611205853e-02  2.6233514491009896e-01 -3.6244207283012927e-03 -3.9255521187872386e-02  2.6722463488567921e-01 1.9154543407993520e-02 -7.3344377454571674e-02  -1.9159166554212445e-01 2.2729537270146655e-01 -6.2068652924334555e-02  -2.2442340748278294e-01 2.0995446805649379e-01 -2.5735180033129738e-02  -1.2560875190002826e-01 2.8282518824605074e-01 -7.0570452657605282e-02  2.6029802575678995e-01 -1.0152818133911271e-01 -4.5179808447852729e-02  2.0413816677768087e-01 1.9317164491881808e-01 -8.6318456423605652e-02  1.3866365246279305e-01 2.8165752257407817e-01 -1.0281276026664651e-01  1.7953793520915096e-01 2.3254852140034632e-01 -4.8433865480581588e-02  2.2729018731253733e-01 1.6139548641322179e-01 -1.0967253645473641e-02  -2.4723603593514831e-01 -1.9316140749387539e-01 -1.3760462957609576e-01  -2.5071007933021272e-01 -1.7565847307977511e-01 -1.0051484551263663e-01  -2.6864868241877160e-01 -1.2958928685970583e-01 -1.2936600958467592e-01  2.7686501423384874e-01 3.3828654711780391e-02 -9.8288424495098989e-02  2.8002973572506562e-01 -5.2691600783617974e-02 -8.3347188091583507e-02  9.1983760989351807e-02 3.0920243951537213e-01 -7.9110130490266731e-02  -1.8394979238116990e-01 -2.5833814618378953e-01 -3.6723960897453507e-02  -1.4273465902544047e-01 -2.9900140451620039e-01 9.3040092880570351e-03  -2.1741995835097067e-01 -2.4154405476324928e-01 7.5271646003017200e-03  -2.7024777543265422e-02 -3.2622406476744636e-01 1.4175648355514478e-03  -8.8573219114439175e-02 -3.1175307509810185e-01 -3.1265344105327740e-02  2.6235669701681080e-01 -6.7129067151183580e-02 -6.1944650655429588e-03  -2.7230393394677482e-01 -1.6954837034258974e-01 1.2615640009655062e-02  1.6255527026717873e-01 -2.6856034016375785e-01 8.9739643432248436e-03  2.0727459486313704e-01 -2.0717588203482451e-01 -2.3248117770450317e-02  2.3479298851623731e-01 -1.7415695769816605e-01 -1.2506138583762102e-03  -2.9258320743860006e-01 7.8412659368237575e-02 -1.8460959606476667e-02  -2.9079054031795931e-01 -2.3321148334826305e-02 -3.1047341692332916e-02  -2.6645619012261523e-01 -1.2555339288463843e-01 -6.8380862225172478e-02  -1.7350128232071046e-02 3.2590539937035223e-01 -2.8268755067365384e-02  -5.2941457216956873e-02 3.1571381530221165e-01 -7.0984791237872949e-02  5.1857043330697350e-02 -3.2740454300014954e-01 1.4422716894073546e-02  -5.8106921431624541e-02 -3.3676556083955722e-01 1.8505842364000928e-02  -2.5428535701688132e-01 -1.4770597201228286e-01 -2.3043439040757319e-01  -2.6777462419681225e-01 -1.0115798574093915e-01 -1.8215292694152693e-01  -2.4733644466624824e-01 -6.7792607706939775e-02 -2.2593877341361152e-01  1.4325968105975145e-01 2.8188287614689400e-01 -2.8934741796368273e-02  6.3412606956693096e-02 -3.0294736072009609e-01 -1.9483179050392870e-02  1.5062418436868008e-02 3.2905485075256591e-01 -1.0002476362394500e-01  -3.0158653315111660e-02 3.2191894422902773e-01 -1.1489026307105135e-01  -7.2261618399958344e-02 3.0922407589737250e-01 -9.4251380760451892e-02  -1.7057346752897165e-01 6.4964840723818446e-02 -2.5858987413165757e-01  -1.8397038210660302e-01 1.0272218040033781e-01 -2.1732836170168343e-01  -1.3704714600950466e-01 1.6664018878575199e-01 -2.2811027223427158e-01  6.9792169036548404e-02 3.2116523697900917e-01 -3.5617684505839686e-02  -2.4555633511580288e-01 -1.8577646189948158e-01 -2.5431458275015639e-02  2.4200300046663603e-01 6.6584301384704114e-02 -1.5519676996738041e-01  2.3979681705670849e-01 6.8314962533556839e-03 -1.6402118513109437e-01  2.1167814404469251e-01 6.4139584786404136e-02 -1.8719995012954740e-01  5.5886515584943376e-02 -2.2335623327706025e-01 -2.2863811733032413e-01  1.4115183970952747e-01 -1.8843083309383585e-01 -1.8758595947412166e-01  8.4284750537752556e-02 -2.3140665519659895e-01 -1.8727759538199595e-01  1.5226089545419738e-01 -2.0420992252938533e-01 -1.5677206725849244e-01  2.6503559575576296e-01 1.6829937643100756e-02 -1.3751602384914957e-01  1.1880101145825712e-01 1.3047039045417380e-01 -2.4661674254312402e-01  1.4203542747499781e-01 1.8701828830136741e-01 -2.1762129455327484e-01  1.7292523103866034e-01 1.1783315641947997e-01 -2.1259007946979341e-01  1.7760114754699277e-01 2.5128182856917031e-01 -1.1854345812051748e-01  2.4035699300815672e-01 1.3859094731873722e-01 -1.0135551471314364e-01  -2.1916531000354939e-01 1.7885077218190680e-02 -2.1220949944976206e-01  -2.0611960826702891e-01 8.2206524308815879e-02 -1.7996027614498192e-01  8.0595962134405119e-02 3.2173812336373331e-01 -1.1961089765673714e-01  -2.1323810299062843e-01 -1.2583220513853620e-02 -2.5174202356576642e-01  -1.3077828522993809e-01 2.6759545677717966e-01 -9.4191344489495080e-02  -1.9753302411848531e-01 2.0186634339341333e-01 -7.9750082013733778e-02  -2.5197969438719880e-01 1.4557589478935631e-01 -4.6333096099679977e-02  1.3676668990855023e-01 -2.7383831796587976e-01 -1.0012881161897767e-02  -1.2730160281913658e-01 -1.4273976527745905e-02 -3.1928089270746957e-01  -1.6293375329845869e-01 -8.9869315977497297e-02 -3.1382447163158539e-01  -1.6230179388515781e-01 -6.4057054365613177e-03 -2.9775386644037971e-01  2.0489110257743431e-01 1.4115328940214131e-01 -1.7740605296302614e-01  -2.7437139899237190e-01 5.7027948675227154e-02 -5.7098856847626542e-02  -8.3729614446372364e-02 2.6844177337109992e-01 -1.6130705558751640e-01  -2.2709557078174195e-02 3.0251490428735783e-01 -1.6550790266724802e-01  -8.2759718465720361e-02 2.5340852744744613e-01 -1.9613439782910697e-01  -2.7660285620992942e-01 -3.1344371654319469e-02 -8.0036193545942505e-02  -2.6519323117972615e-01 -3.2293564270445038e-02 -1.2856925051838997e-01  2.3851912208231843e-01 -1.5903734467779426e-01 -7.2558094516765217e-02  8.6271001312649268e-02 -2.7215629140436426e-01 -7.1495549098427660e-02  1.6300437525569983e-01 -2.3814521201541625e-01 -4.8217274547643678e-02  -1.7315715496315005e-02 3.1744691323457014e-01 -1.3919781756422012e-01  2.7599883459377750e-01 -9.2202609050820949e-02 -1.0145098742912730e-01  2.8106614721802696e-02 -2.8350248748029705e-01 -1.0923159063655008e-01  -6.2600966703016236e-02 -3.0432831511317315e-01 -8.9992757286165917e-02  -3.5670471503216943e-02 -2.8742119674536137e-01 -1.4578239073765950e-01  -6.7933609313993323e-02 2.3166579100958840e-01 -2.2879669491572749e-01  -1.9905575342334478e-01 -4.8807638396323141e-02 -2.8331965637499973e-01  2.2879533532460661e-01 1.8234158029167893e-01 -1.2022917572863559e-01  1.6629879660818367e-01 2.6906245203534501e-01 -1.3296739263776514e-01  -2.4445569409683010e-01 1.2195848554680248e-01 -7.4509442757396543e-02  -9.4127191477375277e-02 2.8005561911954652e-01 -1.2428022221556047e-01  -6.8326692193874244e-02 -1.6834607177466834e-01 -3.1219909020315872e-01  -9.3131544770342176e-02 -2.2314048413426929e-01 -2.8643737686983389e-01  -1.3779658198821823e-01 -1.6218343798976032e-01 -3.1259669453058025e-01  -1.5734165166977690e-01 2.2115710081881043e-01 -1.1358068307267287e-01  2.8921716061828756e-01 -1.5193551545408444e-02 -1.0946051265948756e-01  2.8539612609556056e-05 -3.0881207510576808e-01 -4.9567551978386699e-02  1.1860168424425033e-01 -2.4125293131831330e-01 -1.2410691160742007e-01  1.7961168326909027e-01 -2.1222211545905531e-01 -9.5265762496941006e-02  -1.3714833554370301e-01 2.1739195732772446e-01 -1.5502877187232159e-01  2.4342570134425345e-01 -1.4941050302612463e-01 -1.1122843489123548e-01  2.7090971304509232e-01 7.6599696795316002e-02 -1.1354667947224384e-01  2.8393185790738518e-01 3.5169965978738144e-04 -1.1963970712187981e-01  2.6161481175981666e-01 8.4338293330569331e-02 -1.2517793281829934e-01  1.6430048604541166e-02 3.2699962193491505e-01 -7.0414570593659256e-02  -1.4483388204992062e-01 -2.8765683685181409e-01 -8.3287311170594097e-02  -2.7751740697105520e-01 -1.1368507546562187e-01 -1.9766710686944113e-02  -2.0917285989994247e-01 1.5742540641807545e-01 -1.0128928056348681e-01  -2.4518260424480434e-01 -3.3625484864456064e-03 -1.7376091800256563e-01  -2.3561112648458024e-01 -1.9677165700355298e-01 -6.6138955782183081e-02  -2.1142359608653416e-01 -2.3715330142040483e-01 -1.0353134795592499e-01  2.7459433183105270e-01 -8.4319627037595296e-02 -1.2097946507312850e-01  5.2131787059166920e-02 -2.5578898779406056e-01 -1.6374188277231291e-01  -2.5668337511661293e-01 5.5475932523293713e-02 -9.2775625346850882e-02  -1.7236986123382353e-01 -2.0539539430428141e-01 -2.8548989732884061e-01  -2.2752440058710799e-02 -2.7397374272129255e-01 -1.8188820796445515e-01  -9.8782428184353677e-02 -2.8080535624194963e-01 -1.9936121478581847e-01  -4.0289471843901444e-03 -2.5917420346048575e-01 -2.1096216685774452e-01  -2.3432332508937850e-01 -2.0579766287026843e-01 -2.2927578836332899e-01  -1.9495817261626028e-01 -2.5253875009850968e-01 -2.0503292400357387e-01  -2.5345328429835101e-01 -1.8558684377665252e-01 -1.8663998830635631e-01  2.5386986305136566e-01 1.2529679134150962e-01 -1.1096745634276935e-01  1.1829307820657679e-01 -1.1630812105192056e-03 -2.5298970526484821e-01  1.0286847802841881e-01 -6.9539293519623777e-02 -2.5928049641081558e-01  7.2274255840219070e-02 -2.4749019023331185e-02 -2.7361327556536574e-01  1.3231798342174858e-01 2.7996809102302461e-01 -1.6205023554937473e-01  6.9309125354168721e-02 3.1954451041033405e-01 -1.4946329054558119e-01  1.5781386814924822e-01 -4.3275424984371709e-02 -2.2975613588548807e-01  -1.7393784933139592e-01 -2.6989731020272251e-01 -1.4566099961044573e-01  -1.0865157165587158e-01 -2.8985667408271099e-01 -1.4040093349602353e-01  -1.8507487401534828e-01 1.5958913608317296e-01 -1.4182359070159387e-01  -2.1910730123330324e-01 9.2262988891811157e-02 -1.4314241562823193e-01  -2.4067236310557077e-01 5.2907674670043037e-02 -1.2629844374401714e-01  1.8453602224125523e-01 -1.9939267755502479e-01 -1.2537724439106554e-01  -2.2022924079053263e-01 -2.3342461268329529e-01 -1.5976176177574317e-01  -5.5597021853413212e-02 2.6380996812291935e-02 -3.1769890654076866e-01  -2.0141375751921895e-03 6.5829309882793091e-02 -2.9575318404179429e-01  -3.0910787336341458e-06 -3.6782884108443367e-02 -3.0883242561233298e-01  -1.6932465924046430e-02 2.2580054484280773e-01 -2.5284560934817724e-01  -8.3725376171155871e-02 1.6116309975164544e-01 -2.7233132565776824e-01  -4.6486788780521378e-02 1.5734207811492301e-01 -2.8596954144915271e-01  -2.2084096234931100e-01 -1.8386318748701100e-01 -2.6558705751859096e-01  -1.9113461731609890e-01 -2.3306931209012829e-01 -2.5328785759060191e-01  2.2001421804476098e-01 1.8736185968215768e-01 -1.3305299586108596e-01  -3.2850328680103583e-02 1.1418418171032656e-01 -3.0038159661925767e-01  7.2682700252520882e-02 1.8862660328195929e-01 -2.5570705529680221e-01  1.2108409341216227e-01 3.0939738557339380e-01 -1.2965648889420336e-01  -1.3963892546363721e-01 -2.4422208854103819e-01 -2.6495241367738132e-01  -1.4743958424523379e-01 -2.6160694336371931e-01 -2.3758353763395296e-01  -2.6722449581974242e-02 -2.4452652391436414e-01 -2.5148701335225604e-01  -8.5714699779896084e-02 -2.6266224985169684e-01 -2.4464555308231181e-01  2.2471051925224877e-01 -1.5203882992567250e-01 -1.3505731667846260e-01  2.1999039652042604e-01 -1.3362082608737005e-01 -1.5447658322691377e-01  -7.5863658776126894e-03 2.9474633077321521e-01 -1.8850216387973215e-01  -5.0004997187310498e-03 -2.0770689049108690e-01 -2.7604192338367162e-01  -1.7313367587142495e-01 1.4702471748401821e-01 -1.8201723167634715e-01  1.7962979434398038e-01 -1.3522595100925125e-01 -1.9061829832855379e-01  2.3555827189173520e-01 -6.7008894617467826e-02 -1.6267181577314960e-01  3.5140567326673276e-02 1.3981083157479840e-01 -2.7780090483232267e-01  2.4590635152133433e-01 1.4152442930289943e-01 -1.2284605876647860e-01  1.4700035925870683e-01 2.3330311530280820e-01 -1.9153903510101644e-01  6.9862755681740996e-02 2.4235690569571450e-01 -2.3127315628449108e-01  1.8219993464363492e-02 -1.4749400614399127e-01 -2.9349349253273649e-01  7.9186021111977381e-02 -1.3010189024219226e-01 -2.6845804483511704e-01  6.7242908888019495e-02 -1.7914299900371281e-01 -2.5546859407616063e-01  1.9017562187471976e-01 2.1044757594054447e-01 -1.6145919457614630e-01  4.2020912235694291e-02 -8.6151201095345450e-02 -2.9625920322578753e-01  8.3281887627653137e-02 3.1609523361014719e-01 -1.0564218360820263e-01  -1.3739176034821535e-01 1.9563405090021710e-01 -1.9427705578931168e-01  -1.9752274105066164e-01 -1.3579185238426542e-01 -2.9370569892570597e-01  -2.3088340577283020e-01 -1.0806231211895066e-01 -2.6558262571754127e-01  -1.2549861220626368e-01 1.3981769216983597e-01 -2.5712254062807810e-01  -1.3278687928078695e-01 7.7341184511325642e-02 -2.8903722914763152e-01  -1.4440097792347881e-01 -2.7682937834112531e-01 -1.7417099081947945e-01  2.3614792767208856e-01 1.2416590750462868e-01 -1.4543791010351012e-01  4.6177408152808436e-02 3.3139978738948944e-01 -1.3065968756292221e-01  1.1771907889501422e-01 -1.7521194946128069e-01 -2.2040034672716896e-01  1.3258149852929518e-01 -1.2216354961622049e-01 -2.3313043379956658e-01  2.6759960125212728e-01 -5.6163513969050623e-02 -1.3457175922249326e-01  1.7429416952233923e-02 2.7398478274180055e-01 -2.1452487238466506e-01  1.0000835940047028e-02 1.9249527752962384e-01 -2.7235801826936162e-01  -9.9425315350076093e-02 -9.9809821891688119e-02 -3.3075874441190861e-01  -9.2809224483700534e-02 -1.3306466648187661e-02 -3.2831258799829988e-01  -9.1768172918080163e-02 8.1869148824230853e-02 -3.0948015906014664e-01  1.1397135653439994e-01 5.9087652690782443e-02 -2.5103966919630327e-01  5.9995824174084979e-02 9.3714448036230524e-02 -2.7313186703404085e-01  5.1589018539491972e-02 3.6469429374661487e-02 -2.7345913900777319e-01  1.8654895959977355e-01 -8.1525693742977495e-02 -2.0233371518092483e-01  -5.6723171066129695e-02 -4.8922014797254179e-02 -3.2982281770039618e-01  -2.9235136966046779e-02 -1.0407931558824819e-01 -3.2097828495863256e-01  1.7894320001453859e-01 2.4196633450596525e-01 -1.4613315185826331e-01  6.3015942902776775e-02 3.0018782136159194e-01 -1.7777692758559280e-01  2.0682046860926176e-01 -1.6180637122285218e-02 -1.9448113940626821e-01  1.6608115465919168e-01 4.7367412874531022e-02 -2.2322409249723099e-01  8.6134433277090999e-02 2.7657244749101917e-01 -1.9674711801203632e-01  1.1901041424383584e-01 -1.2324951066512295e-01 -3.6129625393407763e-02  8.7282080353978317e-02 -1.6087465461748521e-01 -4.6967797785679131e-02  -1.5217989236311077e-01 -1.4170202485289768e-01 -4.6309506424467066e-02  1.3765621447011336e-01 -6.8279285160526712e-02 -7.9781645204394333e-02  1.0764537789186390e-01 -1.1796562825879033e-01 -7.9462797023674744e-02  1.1610128983645575e-01 -1.0470442480553195e-01 -1.0428700441123755e-01  8.1749870530883104e-02 -1.3484941200351444e-01 -9.9117222116374887e-02  -3.5224494366295517e-02 6.5631927111036978e-02 -2.3562783092726580e-01  -1.8650657988363382e-02 4.4163377110672065e-02 -2.4939201671663760e-01  -4.3858390256903336e-02 3.4232730410970552e-02 -2.4282051160316281e-01  -8.3281481297776239e-02 -9.1033866868756572e-02 -2.6404998052376694e-01  -5.2497267945284407e-02 -1.1122441614625249e-01 -2.6574932861671174e-01  -8.0271924077082099e-02 -1.1720641858751586e-01 -2.5393201504016250e-01  -3.9976403140048349e-02 -8.2998764265817163e-02 -2.7792093638958382e-01  1.9649870538752646e-02 -1.8408518341289584e-01 -8.3408745398159720e-02  5.1012539051988166e-02 -1.8944257587244345e-01 -4.7188861595930089e-02  1.2815934262645576e-02 -2.0591123394019153e-01 -4.5291246956316505e-02  -2.2289820472597727e-02 2.0736404113829307e-02 -2.5580879903110010e-01  1.2033852331894893e-01 1.3737780552188331e-01 -4.9987281005518726e-02  1.1311757565746663e-01 1.2571702462612552e-01 -6.3504775538353098e-02  8.8831064815892508e-02 1.6118667379042764e-01 -7.0344928299175241e-02  -1.0022601769461281e-01 6.4982026186616845e-02 -1.3528255254388155e-01  -1.1168051308309508e-01 5.9190668220955700e-02 -1.2095860235527545e-01  -9.9794145834615877e-02 8.3079099556157845e-02 -1.2369175372072540e-01  -1.6764185656762320e-01 7.1757248773033980e-02 -5.7363929855030776e-02  -1.0884191906484832e-01 4.5631102396171061e-02 -1.3734548070426161e-01  -4.6103204498037835e-02 -5.3330077420762470e-02 -2.7919768993007188e-01  -7.6507256870251908e-02 -6.0936876447553627e-02 -2.6938196882055199e-01  -6.7390358615501328e-02 -2.0928295140950248e-02 -2.6551465008550390e-01  1.3128080174018050e-01 4.3872593472855909e-02 -3.0666369869640626e-02  1.2645300517219529e-01 4.1314327439975401e-02 -4.9210298593412666e-02  1.2874916871521455e-01 6.7927448072799004e-02 -4.2486106770439160e-02  -4.9969838120276742e-02 -1.8053822406586317e-0