<?xml version="1.0"?>
<VTKFile type="UnstructuredGrid"  version="0.1"  >
<UnstructuredGrid>
<Piece  NumberOfPoints="683" NumberOfCells="2049">
<Points>
<DataArray  type="Float64"  NumberOfComponents="3"  format="ascii">0.5115260073529395 -1.502561978251586 5.85473533745933e-18  0.04772919748906908 -2.336857076553191 1.13833272147332e-17  1.149744377495256 -1.311013935835729 1.276940214359467e-18  1.664609619604168 -0.8870750916249638 3.245241176023951e-18  1.993229889836497 -0.2989109998012057 -4.389797404914119e-16  2.088065189736621 0.3611372813317937 -4.389529230146887e-16  1.889673689299865 0.9968822799604108 -8.862511247570396e-16  1.449992924872852 1.509546001733301 -8.822628323610701e-16  0.8579457724121295 1.854992998576102 -8.809469874957449e-16  0.1823309834718423 2.006185412982213 -1.333091974801846e-15  -0.4965043963037871 1.971279553773474 -1.324818240996845e-15  -1.087928236874064 1.63879409926342 -8.835154017237049e-16  -1.501070882635535 1.108463971972737 -8.900827551827552e-16  -1.667795405670154 0.4597622519358603 -4.475054417752727e-16  -1.593934466282889 -0.2012006611957483 -4.405196801942088e-16  -1.286693602932047 -0.7905093537292728 6.654460778448636e-18  -0.7848303187757023 -1.226218644086891 -2.492325608376484e-18  -0.1596551020298878 -1.472299334385204 -4.353529033118559e-18  0.7419101722033585 -2.365196833395557 1.685550511366782e-17  1.428693712939317 -2.196619686447923 1.597275075751087e-17  2.039449643715831 -1.830749021647211 4.295577128969938e-19  2.529356769632652 -1.315756161201251 8.849891191809716e-18  2.876217178496924 -0.6951864573985771 -4.455143526128225e-16  3.065153566456472 -0.003690347873565446 -4.405760278988117e-16  3.044339995942216 0.7169349268707962 -8.817551641325795e-16  2.759091569320269 1.379786989100233 -8.898661231250471e-16  2.289719697231758 1.925163487812281 -8.883076409532671e-16  1.703715960540346 2.330959204211867 -1.331582776704466e-15  1.04939375579405 2.605234685011791 -1.34408103367899e-15  0.3591304337370755 2.750283914058065 -1.328746960365404e-15  -0.3471248543194082 2.743779386552617 -1.324524154499366e-15  -1.036888049522119 2.581253803668691 -1.322263306613132e-15  -1.664360606346702 2.242718590720892 -1.31973141559531e-15  -2.17672722191446 1.74712082865651 -8.753163323769544e-16  -2.525910730998129 1.120745133538256 -8.770902399125082e-16  -2.654349260647376 0.4143721625821016 -4.363995306156421e-16  -2.571864955293004 -0.2964559190092835 -4.436672331634642e-16  -2.272825172108871 -0.9418099467480814 1.44692379528127e-17  -1.819755819350706 -1.481428738592874 4.619752626374866e-17  -1.260078890518578 -1.898965920925584 7.915838861367783e-18  -0.6288584619267439 -2.185166921694109 1.35435415825134e-17  0.5274997938553548 1.769324041897119 -6.492279455950492  0.9145271740212152 1.521304704649964 -7.072031134847784  0.2490414792351759 1.593641291409988 -6.920458565282293  1.206479759569476 -1.928085421893082 -3.101573284108648  0.5078761538081334 -2.168500380726502 -2.935856859651766  0.7078310769430095 -2.120120222965025 -3.671237390388475  0.03096561054902992 1.954151563060826 -3.758298702761889  0.06324273942154723 1.869043592213216 -3.069512117092032  0.7227081495319284 1.780109553172303 -3.365588866406688  2.083667207529846 0.6465734922958997 -2.089346860288058  2.177365451602809 0.2029054786129714 -1.757106202336173  2.179721827990657 0.1624067642306634 -2.353984028779156  0.5338853888370747 1.7614497485979 -2.511511904670797  2.09878328617604 0.665530357728438 -1.515688201059949  1.16844538103306 1.745501062785655 -0.6702151969706877  1.435021485776427 1.536914812780774 -1.410952424031548  0.8949814762758177 1.817614265539875 -1.255431750375202  -1.211709123142118 1.550729093355087 -0.6625459579205268  -0.7029731219159144 1.853500805841719 -0.5765625609005222  0.2728831192710322 1.866223120746009 -1.691078214118737  -0.2692373652388771 1.928384500982472 -1.106294307113641  0.4108279874900606 1.958689765779538 -0.7725875266158014  0.9741366668877925 1.787490544502486 -6.162275040922069  0.4222519099288187 0.8705469126589459 -8.064848247344926  0.7474953524485334 1.205790156174479 -7.686351853332998  0.9594292191223495 0.7467913803551668 -8.173223360023259  -0.1272708582166928 2.000073050500758 -0.4180285444924603  -0.5374126401938595 1.983274699447066 -4.793148088185835  -1.094382535698639 1.772399954866878 -5.09915904678232  -0.9941573880112997 1.875761835110712 -4.448794967088034  -1.160106533965253 1.804441495033135 -3.750903063133948  -1.464919232116752 1.664206747528225 -4.441919601882214  -1.79425215181882 1.446236896496828 -3.906530357869096  0.839327397361243 -1.870394640946107 -1.235375673672729  1.051508233022694 -1.963308844892268 -1.941956241296869  1.508410970111344 -1.533185231750865 -1.398513895146726  -1.670389947343064 -0.6819996447170324 -5.159050779004806  -1.464840936605772 -1.15915419844086 -4.834455197461305  -1.826166538383853 -0.8199273635093278 -4.410765298354978  -1.187924779443673 -1.212876054181901 -5.415601151896957  -1.715853183825073 -1.209183487088852 -3.561559127912856  -2.025935861066896 -0.7948211120852509 -3.179094800472773  -1.958882837352887 -0.7782590132848732 -3.803227804291304  -1.69819629268239 -1.312944780881792 -3.073385383449879  1.052173932589977 1.65030895657773 -1.954504784201176  1.716813566046782 1.21951462550656 -1.993665682971662  -2.148139301963831 -0.1701759413689178 -4.120417002597163  1.570159487656959 -1.636711131551936 -2.380638353839518  -0.8323870863558597 1.775970767557403 -1.280576839356801  -1.999328684759537 -0.2591499871947317 -4.708248513534911  -0.2555993054484869 -2.11609614109137 -4.066398366480031  -0.1155489765143434 -2.063634657720093 -4.633431796782757  0.292412002304219 -2.15163705440237 -4.220668175850262  -0.644248155354991 -1.894792886831816 -4.625104782666735  0.3791956502561247 -2.110605431166759 -1.770934087657134  1.049210415188932 -1.955591469647628 -4.419526758421304  0.5007380214494297 -2.003204899641445 -5.030268748999242  1.154865697865717 -1.806025537110646 -5.207219720217585  -1.24568389032575 -1.627621146738856 -1.16647036161337  -1.697194689952592 -1.123100705642075 -1.095070325036447  -1.618646404641377 -1.394166652434702 -1.867408856711496  0.1407447309079491 -2.015657328929906 -1.270847495025742  1.305238795537209 1.460214764479528 -2.729876012221601  1.363231602295698 1.532339747874929 -3.602374743173245  1.338310972767161 1.038978676830054 -7.704758400722537  -2.151574741900372 -0.5128625535963915 -2.658856868150719  -1.862027144048124 -1.10947722587781 -2.551358100799619  0.8409462583160319 -1.645202945960627 -0.6140254400089056  -2.071376911748862 0.04198513141250478 -1.319394218304107  -2.202237037003263 -0.1743664708066638 -2.053424032143476  -2.112748307372291 -0.4133729631621409 -1.632746599511681  -2.141632020788091 0.4039879590404413 -1.987702442394504  1.422814368127311 -1.34738652571401 -0.6675915154591548  2.120250103838394 0.6202815048856791 -0.7137144455962908  0.05054108931333697 -2.156733244378615 -2.393957797751964  -0.4653493188478325 -2.070968887983706 -2.446998447448015  -0.1722291280461889 -2.164581699730443 -2.958643427842741  -0.3792535445302628 -2.064077416293298 -1.833535756943371  1.028806693611926 -2.024965278775223 -2.551279045792703  1.920554094218659 -0.878717349550947 -0.9420962666481379  2.11479093596861 -0.2348175059275918 -0.4768408616338667  2.187442697856374 -0.01021454904549663 -1.150544011751906  -1.377445228581377 1.41822638109919 -1.369274360681051  -1.82447442384402 1.10576479153347 -2.025070317990209  -1.820832673399301 0.867530807068852 -1.329859149592524  -1.1837806546997 1.660337727327716 -2.042166833228597  -1.565111303370858 1.164886128810285 -0.7853813583915393  2.148165673336768 -0.3943177453705762 -2.575415067068954  2.022065067121309 -0.8620607777196371 -3.070906912939177  2.163076463641155 -0.2857508829263611 -3.40284873828007  -1.655784792279773 -0.155792967599208 -5.824515305365728  -1.901084506597783 -0.06921683584747429 -5.218230110594907  -1.290697614836368 -1.665526998210187 -3.471634557266424  -1.088986622019531 -1.718797406971855 -4.177295790915554  -0.7890395537264752 -1.955200558796515 -3.796268183432515  1.775386613018633 -1.328773724082565 -4.110140050468493  2.050909426107549 -0.9448749487515473 -4.681838336254349  1.999972591055332 -0.8831471040350548 -3.793164724628786  1.988081260200872 -0.9563037632072545 -2.353340121119709  1.885513276917547 -1.157063545597819 -1.735335369092678  -1.511987670558889 -1.338003732224626 -4.165085093572953  -1.806204927200311 0.6123070914228848 -0.6235625394539758  2.114153021276796 -0.4848018349311193 -1.716298508068631  -0.4364124366049198 -2.101263706491334 -3.382949461846116  0.0862264325940074 -2.178063594763356 -3.498294328141111  1.73238021527215 1.308257590407023 -0.6680152525245847  -0.5901996649085723 1.847397424783613 -1.953164366067853  -1.324998474181634 -0.7262396232927172 -5.970730483502477  -0.9584158440099184 -1.881674695923551 -2.285242802809155  -0.9780749696637802 -1.840951862172453 -1.671950313123431  1.247997655746977 1.722503322799954 -4.423411640889203  1.693958750265271 1.392056905526229 -4.182222402775003  1.666221223318449 1.49811823939121 -4.841198394415631  -0.1523193411373728 1.861309972938555 -2.460917336705181  -0.5532208296214727 1.901427505930316 -3.22909236712734  1.117782479546286 1.824970934170152 -5.320863265804038  0.6418681217959292 1.981122463402261 -4.660907812157338  2.284308851586171 0.2329444577163976 -4.270439107031093  2.334852016446468 -0.2482481159827303 -4.925962989312551  2.376236051184748 0.3843626838811207 -4.962120669124957  2.432495169245344 0.0484742913330891 -5.588317466096534  2.335116576697518 0.5818941097934321 -6.269001882439613  1.902011943034631 1.26313699536806 -6.188271798464992  2.236919437375611 0.8663219425343024 -5.440963460684308  2.10164074662507 0.8391271074028852 -6.904277490502436  1.35704143849703 -0.139426514462118 -8.459875364822475  1.144953405538023 -0.71561169376980
[...]
<PointData  Vectors="f_509645-0"> 
<DataArray  type="Float64"  Name="f_509645-0"  NumberOfComponents="3" format="ascii">-8.2092075671729471e-03 -3.4943630078195526e-01 0.0000000000000000e+00  -2.3499871585177707e-02 -2.7992386723583346e-01 0.0000000000000000e+00  8.2903294442113709e-02 -3.0055041972812946e-01 0.0000000000000000e+00  1.5616051528355446e-01 -2.1750495091877653e-01 0.0000000000000000e+00  1.9525039093890148e-01 -1.1978577432663344e-01 0.0000000000000000e+00  2.0670455488153264e-01 -9.5962872586172320e-03 0.0000000000000000e+00  1.9884568848604611e-01 1.0035869312960122e-01 0.0000000000000000e+00  1.7038592139746500e-01 2.0490074872590788e-01 0.0000000000000000e+00  1.1611685825035135e-01 2.8259859203332471e-01 0.0000000000000000e+00  4.5229629138750553e-02 3.1359767619332912e-01 0.0000000000000000e+00  -3.8070606408182169e-02 2.9100852486210838e-01 0.0000000000000000e+00  -1.1345338349913815e-01 2.3759288587750818e-01 0.0000000000000000e+00  -1.7600871343404417e-01 1.5945779269874177e-01 0.0000000000000000e+00  -2.2201160687863086e-01 5.8642969776818661e-02 0.0000000000000000e+00  -2.4243496071571885e-01 -5.7684166463578219e-02 0.0000000000000000e+00  -2.3214015712063635e-01 -1.7789528694349102e-01 0.0000000000000000e+00  -1.8304173414753247e-01 -2.8258962046855740e-01 0.0000000000000000e+00  -1.0303359914559851e-01 -3.4617106295717670e-01 0.0000000000000000e+00  4.0751192318693966e-02 -2.4858944778903830e-01 0.0000000000000000e+00  8.1423856350668608e-02 -1.9921779174397714e-01 0.0000000000000000e+00  1.0071771960266296e-01 -1.4760671272191833e-01 0.0000000000000000e+00  1.1217229207258153e-01 -9.8613490922392133e-02 0.0000000000000000e+00  1.1401050584534188e-01 -5.1376868723271622e-02 0.0000000000000000e+00  1.0701221683146306e-01 -1.1295468383200134e-02 0.0000000000000000e+00  1.0438788929371819e-01 1.7110310813255650e-02 0.0000000000000000e+00  1.1049565441437799e-01 5.0711226255567080e-02 0.0000000000000000e+00  1.1728171553968479e-01 9.7757258361531457e-02 0.0000000000000000e+00  1.0513373512453970e-01 1.5666160236849036e-01 0.0000000000000000e+00  7.0035888177473832e-02 2.0756901181491316e-01 0.0000000000000000e+00  1.4607758087949790e-02 2.2824799180676197e-01 0.0000000000000000e+00  -4.1010733735531484e-02 2.1237243644089843e-01 0.0000000000000000e+00  -8.1821487096267603e-02 1.7088095618701030e-01 0.0000000000000000e+00  -1.0252169988291104e-01 1.2343417474197596e-01 0.0000000000000000e+00  -1.1406614834237633e-01 7.7208869291078258e-02 0.0000000000000000e+00  -1.1795837828066581e-01 4.1423291136904766e-02 0.0000000000000000e+00  -1.2970264117822344e-01 9.0194358364776728e-03 0.0000000000000000e+00  -1.4524425828569415e-01 -3.0918235835086218e-02 0.0000000000000000e+00  -1.6364222549304919e-01 -8.7368003842114877e-02 0.0000000000000000e+00  -1.6774420289493952e-01 -1.5709996312330651e-01 0.0000000000000000e+00  -1.4345508957799097e-01 -2.2227979674588499e-01 0.0000000000000000e+00  -9.0656127889019153e-02 -2.6905197758361826e-01 0.0000000000000000e+00  1.9097157785382568e-02 2.5145232914656662e-01 -2.6033585823932609e-01  4.3507544052762963e-02 2.1269218234287920e-01 -2.8461278452762817e-01  -1.7808900040559517e-02 2.1674519894537314e-01 -2.8376106961805886e-01  1.2428677136826294e-01 -2.4868243891390618e-01 -1.1919106430693722e-01  2.7047480633099859e-02 -2.9670693435568252e-01 -1.1590371790014369e-01  6.0025889900412861e-02 -2.7597286518170316e-01 -1.4631416375577372e-01  2.6728921424255130e-02 3.5070776418640498e-01 -1.2132879842633146e-01  3.6483696752907524e-02 3.5019316749003226e-01 -9.9607704989156498e-02  1.0125942164426507e-01 3.3238382776195358e-01 -1.0674554795538685e-01  2.1603171870638940e-01 8.8649798581789313e-02 -7.2524840254436354e-02  2.2682650092919981e-01 1.3378972539537676e-02 -5.8105650486887248e-02  2.3807060131428789e-01 1.9369370948939941e-02 -7.7747130873162859e-02  8.2321892507422056e-02 3.3362261590914694e-01 -8.8682028697998364e-02  2.0782463493218689e-01 7.7850905382329930e-02 -5.3437819649989941e-02  1.2912332463924106e-01 2.5915596790388346e-01 -2.5158398826605567e-02  1.5209527964202985e-01 2.3318049921696285e-01 -5.6782966915855104e-02  1.0211757218049540e-01 2.9252829496986565e-01 -5.1665454229386530e-02  -1.3334706224570675e-01 2.1319931199606387e-01 -1.7076502339143394e-02  -7.4786035945938967e-02 2.7209802176286046e-01 -1.9143351384401042e-02  4.4975095725066583e-02 3.2626543080733378e-01 -6.5730456023387840e-02  -2.1318503954027308e-02 3.0606772321530923e-01 -4.1015204696908211e-02  5.3109547644962257e-02 3.1224757319372304e-01 -3.0508797586364968e-02  7.3770561441077243e-02 2.6117426342884575e-01 -2.3698639128187646e-01  -1.9325236266103864e-02 1.0421247559760394e-01 -3.2236319635471178e-01  1.6412020959640006e-02 1.6309350856811988e-01 -3.1205221601205507e-01  2.7921777603862531e-02 1.0318785672786807e-01 -3.2535844871323755e-01  -5.8280527528469812e-03 3.0951530684672185e-01 -1.6805600664719530e-02  -4.6556620900244539e-02 2.9980845576993287e-01 -1.7336372256431642e-01  -9.9945292880525491e-02 2.2709492656795141e-01 -1.9250612988913771e-01  -8.1767440494498272e-02 2.7051527938598369e-01 -1.5768280427460699e-01  -8.7285324370615106e-02 2.6652708638042760e-01 -1.2701414081805582e-01  -1.2062763131058654e-01 2.0480146967607593e-01 -1.6121703801584181e-01  -1.4156100244787939e-01 1.6084545284204688e-01 -1.3912347060688199e-01  5.8149425384567660e-02 -3.0126139081653952e-01 -2.1885461453954362e-02  8.6570019888563540e-02 -2.7137241542952734e-01 -6.2373276022784432e-02  1.4076584133104408e-01 -2.3264491749210967e-01 -3.4402048317001069e-02  -2.3198038863693052e-01 -1.6538121759648733e-01 -2.4313510525892829e-01  -2.1944026010050219e-01 -2.1956894915446734e-01 -2.3005680482868876e-01  -2.4774207884764735e-01 -1.7620307969148966e-01 -2.0525119562206731e-01  -1.8885474778606848e-01 -2.2687256782674331e-01 -2.5669359552508192e-01  -2.3735029219338877e-01 -2.1483349474543645e-01 -1.6144710053367758e-01  -2.5106230659054157e-01 -1.5385364790915737e-01 -1.3759915827044911e-01  -2.5482450156363134e-01 -1.6419979556713030e-01 -1.7232644870053540e-01  -2.2758985892919484e-01 -2.1921029695973915e-01 -1.3460593391456713e-01  1.2429300653772868e-01 2.8774292449197897e-01 -7.7474677074917425e-02  1.8170000126282684e-01 1.8956449953210533e-01 -7.5091693993007469e-02  -2.4799456078199569e-01 -9.0677299924941668e-02 -1.8080511908255806e-01  1.6515484448924000e-01 -2.1528403626206014e-01 -8.4552759229107072e-02  -8.2877999462405025e-02 2.6454274901520469e-01 -3.9476650293983798e-02  -2.4247634203771035e-01 -1.0814574003435989e-01 -2.1355344853105526e-01  -6.4214129280292825e-02 -2.9635838083938898e-01 -1.7524017598781405e-01  -4.6615884692667475e-02 -2.8628521657109740e-01 -2.0385103429090565e-01  7.1432126905399407e-03 -2.8452919953982969e-01 -1.7609540758761894e-01  -1.1690177906220842e-01 -2.8319828379199630e-01 -2.1146263443006305e-01  2.1789339679715637e-03 -3.1245812489517816e-01 -5.4603207098313240e-02  1.0205590908515463e-01 -2.4535453776107394e-01 -1.7456276799876683e-01  2.8257903343680772e-02 -2.6767924332195331e-01 -2.1387471000774669e-01  1.0758251941058633e-01 -2.2951178100712327e-01 -2.0780279512423772e-01  -1.7590153188846808e-01 -2.5017060625472670e-01 -2.6445087064732999e-02  -2.1460909917624010e-01 -1.7264686856937303e-01 -1.9651210142300406e-02  -2.0511975830633525e-01 -2.1280715175519385e-01 -6.9873219505336023e-02  -2.6876059849557394e-02 -3.2754377657158529e-01 -2.4610557825474430e-02  1.5722101063861485e-01 2.6733495136123020e-01 -9.3967874944747898e-02  1.6169078775879592e-01 2.6862187264735921e-01 -1.1229250431951582e-01  6.9365952343534473e-02 1.4936587976941287e-01 -3.0506499443420221e-01  -2.4514121787876691e-01 -1.0332453465694132e-01 -1.0630719554367418e-01  -2.3274412748740261e-01 -1.8319025903654815e-01 -1.0615225910920249e-01  5.5382424182212710e-02 -3.1779224805807099e-01 4.6498915880972365e-03  -2.2243778845782755e-01 -1.0707847939821693e-03 -2.8051264471253522e-02  -2.2931978622135332e-01 -3.9197380770697746e-02 -6.9540568818925869e-02  -2.2756811589651330e-01 -6.5440666343531101e-02 -4.8253076885473832e-02  -2.1141888815698648e-01 4.0331223856114484e-02 -5.7756958852782120e-02  1.3120520410685271e-01 -2.5292467003467933e-01 -2.7156985272144790e-03  2.0087674911501255e-01 5.3195843452230565e-02 -2.0275719378947763e-02  -3.3813944297505831e-02 -3.1706567421767251e-01 -9.0897804118711109e-02  -9.5321147044393234e-02 -3.1508463397599318e-01 -9.5946473123653592e-02  -5.7405872060359353e-02 -3.1339898173878988e-01 -1.1963279679838106e-01  -8.5062749951758290e-02 -3.1672380119164567e-01 -6.3059729867212602e-02  9.1520780137148552e-02 -2.6758647317623691e-01 -9.5764277244046195e-02  1.8803737458297964e-01 -1.5740568461530527e-01 -1.9549692539025297e-02  2.0289665374135080e-01 -8.1914412730657596e-02 -7.7520557233498487e-03  2.1460787001532980e-01 -3.0190615309347774e-02 -3.3278331352215675e-02  -1.4129687968496596e-01 1.9846033540111482e-01 -3.5351510836804094e-02  -1.6827233640164929e-01 1.3857121377026452e-01 -5.3087905808258895e-02  -1.8962286610261789e-01 1.1080870083795742e-01 -2.7913359600428064e-02  -1.0236315814687727e-01 2.3998348517976467e-01 -5.8278510302819879e-02  -1.7455774104137056e-01 1.5272624232412002e-01 -1.4945016289323218e-02  2.5302521544416645e-01 -5.8273884586974710e-02 -8.4906852942523175e-02  2.5389253900552533e-01 -1.1889219701586901e-01 -1.0591165312675742e-01  2.6724407712926262e-01 -4.4799704842393075e-02 -1.0772496454184677e-01  -2.0787612400416461e-01 -9.6697765808846564e-02 -2.6289618004759491e-01  -2.2648972107570162e-01 -8.5818816962507677e-02 -2.3535399888410893e-01  -1.9204962464205064e-01 -2.6641496843567308e-01 -1.5448944867957443e-01  -1.7241775577308743e-01 -2.7179213704741390e-01 -1.9148019809526162e-01  -1.3277131223479724e-01 -2.9275417501579726e-01 -1.6721578604531390e-01  2.1891022785029429e-01 -1.7483153641692503e-01 -1.4435170037556422e-01  2.4024775666131254e-01 -1.2760798931184289e-01 -1.5575286525185517e-01  2.5881584020942805e-01 -1.2393108571635954e-01 -1.2545236120137196e-01  2.3128074949870933e-01 -1.3254359090736922e-01 -8.0059861799518003e-02  1.9518863182311960e-01 -1.6594299806992227e-01 -5.3070606425696824e-02  -2.2165950212194827e-01 -2.3434784517003238e-01 -1.9342861400294534e-01  -2.1241354409128196e-01 6.9806997803797344e-02 -4.1231506369353533e-03  2.2894578474696239e-01 -8.0952946637405612e-02 -5.3893494555559904e-02  -8.8964384551252801e-02 -3.0756652823267450e-01 -1.4243152629289196e-01  -2.1592081315352514e-02 -3.0399378993433218e-01 -1.4355574927139095e-01  1.7534227214792814e-01 1.7000438762378683e-01 -2.1727522718057210e-02  -4.1326000537369130e-02 2.9773861502296289e-01 -6.3612652052466551e-02  -1.9474673433828052e-01 -1.6829617598575905e-01 -2.7613941779737744e-01  -1.4916534045118660e-01 -2.9129012632501422e-01 -9.0841306930649846e-02  -1.4848213286121992e-01 -2.8415017879404797e-01 -5.7162213929955324e-02  1.4149570552965854e-01 2.8631330456459136e-01 -1.4385764253476349e-01  1.8512011023958816e-01 2.2351468739142211e-01 -1.3063486285451575e-01  1.7123462519541105e-01 2.3253317754430186e-01 -1.5927887007224098e-01  1.1905611713465483e-02 3.3493971244206650e-01 -8.3326945027038149e-02  -2.6820742154644268e-02 3.2573604892611369e-01 -1.0501762061465589e-01  1.1213708885978430e-01 2.8268729929357894e-01 -1.8947475851562323e-01  7.6115918695253734e-02 3.2364610187569143e-01 -1.5903682316776763e-01  2.5155550055097614e-01 2.9111762486261513e-02 -1.2786254892061391e-01  2.5129867014598301e-01 -3.7242023020231788e-02 -1.5303290968888450e-01  2.3384446418291180e-01 5.1909560889320118e-02 -1.5430192226242023e-01  2.2964910217155027e-01 9.4932733326973801e-03 -1.8262573413425140e-01  1.9532599225931663e-01 8.4721900843091599e-02 -2.1454203931665741e-01  1.6241612422375823e-01 1.7908621772343611e-01 -2.2091761763523421e-01  2.0905045118233820e-01 1.2206541274329639e-01 -1.7907614230099761e-01  1.5648545411997619e-01 1.1766025521507387e-01 -2.4826106704409237e-01  6.8724876704080354e-02 1.1184404164971561e-02 -3.0461610573073994e-01  7.2947007263976349e-02 -8.0557553519712957e-02 -3.1468514097170364e-01  3.1987715675775179e-02 -3.1801013192854354e-02 -3.1488718164863772e-01  -3.1663627407866192e-02 3.2644352137901417e-01 -1.3420030192236601e-01  -9.3376295009257884e-02 2.4970299512283561e-01 -9.2476406243784559e-02  1.6280363011274518e-01 -1.3314220701915566e-01 -2.4644455552798608e-01  1.7313427837866427e-01 -5.8805590416048430e-02 -2.5350805161215850e-01  2.0648724717442637e-01 -5.4567842960035015e-02 -2.1823605998158929e-01  2.2925944945192506e-01 -8.8988293427854998e-02 -1.8360259201646795e-01  -5.3577725628758816e-02 2.9413634680954104e-01 -8.2722469848184113e-02  2.6711746418416832e-01 -6.1729776393299608e-02 -1.2737905809088482e-01  3.5979609485190618e-03 3.1292330962203202e-01 -1.8739300133986586e-01  6.7397295334208447e-03 3.3601758401626858e-01 -1.5250401152546475e-01  2.1221021056450728e-01 1.3415325786391452e-01 -9.1606206433334961e-02  -2.3406586895137235e-01 -3.1298944052942583e-02 3.8503169163881519e-03  -9.9817214579760255e-02 -3.1791774300308040e-01 -2.0440031352583460e-02  -1.1033934170758432e-01 -3.3645408049841863e-01 1.1754860104647585e-02  -1.6080807716971182e-01 -2.8820404957979212e-01 7.0575104479554821e-03  2.3418444966132521e-02 2.8767081992809873e-01 -2.2392898890187074e-01  -7.5467626930853987e-02 -2.6235634679753894e-01 -2.6659261545773688e-01  -1.3964053903813822e-01 -2.3275141500838559e-01 -2.7727372141060541e-01  -8.8846663821370214e-02 -2.3442969907185357e-01 -2.8497155602570795e-01  -1.2970036554610900e-01 -2.6481808701195320e-01 -2.5172953449156948e-01  3.7267914001223826e-02 -2.9451753604077918e-01 -8.6378642868064029e-02  -9.9926920163980554e-02 1.6052916065116976e-01 -2.6555133473466103e-01  -9.0694769510275816e-02 1.0673075715908077e-01 -2.9812019037018384e-01  -1.3126642469871230e-01 5.0537962302692266e-02 -2.7955488323174560e-01  9.3446331264629853e-02 -1.9573368581028464e-01 -2.6669442995215326e-01  2.9858580744410199e-02 -2.3992759588653428e-01 -2.6834989202998905e-01  1.9352302367480208e-02 -2.0673886170522324e-01 -2.9024848058642921e-01  -1.3720544159675593e-01 1.8221151374422545e-01 -7.2555514797574230e-02  6.7793046606893143e-02 -2.3999452389338763e-01 -2.4225572847344407e-01  -1.2629059951668969e-01 -8.4420879777794250e-02 -3.0829403158568136e-01  -1.3993170245439762e-01 -3.3081879691341749e-02 -2.9708186445742829e-01  -1.0758954151368999e-01 -3.0717272062323452e-02 -3.1419739308983680e-01  -1.7459332942020442e-01 1.0335458101107395e-01 -9.0455017988205225e-02  -1.6994540773591579e-01 -1.1331571597782755e-01 -2.9103864330488943e-01  2.2477179719174151e-02 -9.3087866011351619e-02 -3.2013211026159494e-01  -1.9537516098187110e-01 -2.5600300532224396e-01 -1.1236961865338295e-01  -1.3447170387792873e-01 -2.9991952257327859e-01 -1.2562360617673371e-01  -1.7939877011116634e-01 6.5067241367585765e-02 -1.6681685129208929e-01  -1.7735504328197149e-01 7.8566768598776385e-02 -1.3193392595157050e-01  -2.1089526597429295e-01 -1.3543276019372193e-03 -1.6817775389878820e-01  2.4630832436970138e-01 2.5044934023925672e-02 -9.1538434573437924e-02  2.4256049401014515e-01 5.7385359985491290e-02 -1.0885202611871589e-01  -2.3108495352680816e-01 -2.2692396324024269e-02 -9.3639977826082216e-02  -2.0284931729390415e-01 5.5616751192291661e-02 -8.0295056997649800e-02  -2.1492735589927708e-01 1.0627495318920268e-02 -1.1511821953174597e-01  -2.2954367441028287e-01 -8.5675664279878425e-02 -1.5436705568890385e-02  -2.3161690906859203e-01 -1.4265958517494698e-01 8.7764396695913793e-03  -2.2315632396762533e-01 -1.3472993838362213e-01 -4.6770070599531491e-02  -2.3278278620329368e-01 -1.2313289212697405e-01 -7.6756459004910141e-02  6.4263013891242102e-02 7.8247467170415086e-02 -3.1386633892762661e-01  1.0613668095343229e-01 3.4678761589772712e-02 -2.9509242166675320e-01  -1.1451031294811650e-01 2.3166843955166303e-02 -3.0081127232834193e-01  1.0616407236959283e-01 2.1962510834579688e-01 -2.4798114488617060e-01  -1.4373682442935568e-01 1.3860316810125625e-01 -1.9242139293966370e-01  -1.3383118255876927e-01 1.4427062308764962e-01 -2.1310728253192171e-01  -1.0671505468890773e-01 1.8536156548703273e-01 -2.3064812246867861e-01  -5.0086474567352421e-02 2.6695930602561335e-01 -2.1684170696550181e-01  -1.6110925862956368e-01 7.6472797887746372e-02 -2.1548573358177026e-01  -1.7429935674379290e-01 5.9939660525021990e-02 -1.9713983207676447e-01  1.8681926291289103e-01 1.4334036574066666e-01 -4.5919225869084729e-02  2.0985151753103326e-01 -1.8845881459359617e-01 -1.1990628007456672e-01  -3.7238141455669053e-02 -3.4820070251291707e-01 8.7117781940576917e-03  9.9965531750415837e-02 -2.8015537211898994e-01 -9.5190929293990940e-03  2.0895738990090826e-01 1.6406414084396986e-01 -1.1249888538328430e-01  2.1599507101725721e-01 1.3794119735752106e-01 -1.4122925934951325e-01  -2.0591281308033391e-01 -2.3026025447605619e-01 1.2100490109199481e-02  2.2000968031516122e-01 -1.6719637113917096e-01 -9.8217875232539081e-02  1.0937365426790271e-01 1.8011488930002820e-01 -2.6593450679170910e-01  1.2986963127536300e-01 -1.3098159654661876e-01 -2.7413377711017595e-01  6.6084539493689309e-02 -1.4833101849369817e-01 -3.0168861394540958e-01  -1.7934550976442165e-01 -2.5750970926312799e-01 -2.2633771252366897e-01  -1.6943981053955656e-01 -2.0275267303346441e-02 -2.6891861994109273e-01  -1.8856622723316824e-01 -3.6888106401247712e-03 -2.3453192022990410e-01  -2.2227839283395578e-01 -1.6837065664366362e-02 -1.4626281879230740e-01  -5.7463041464761409e-02 -2.7770408483210823e-01 -2.3704352850860044e-01  -7.2772207075079290e-03 -2.6558558854908831e-01 -2.5347979148964844e-01  -2.8162994490870116e-02 -2.4537654208456092e-01 -2.7843353229627577e-01  -3.8862475143880103e-02 2.4168094675910579e-01 -2.5735209107232937e-01  -6.1936065047517586e-02 1.8443983326949775e-01 -2.8651036126141549e-01  -2.1410699647514569e-01 -2.3044392501620239e-02 -2.0266451854154019e-01  -3.1432938114611571e-02 1.6835735575535551e-01 -3.0473393099913637e-01  -1.3740036602208949e-01 -1.8815411901251919e-01 -2.9360310958960018e-01  1.6258696420896321e-02 -3.3049383504127994e-01 -4.9022765166133360e-03  -1.4270267492882016e-01 8.3369948256663842e-02 -2.4206897707209013e-01  1.5585000981688865e-01 -2.2475322286208879e-01 -1.4771948046183828e-01  -1.4173903615527775e-01 1.6117504225258963e-01 -1.0445623106850380e-01  1.1070293100982766e-01 8.9109468469002223e-02 -2.9001599790787741e-01  2.6553293693954294e-01 -1.3711261316682311e-02 -1.1560144363933307e-01  -1.5257948252450759e-01 1.2378235343023122e-01 -1.6829733816224346e-01  -3.3245407218372616e-02 -8.4980313563821644e-02 -3.2257186579093888e-01  -7.0911436197215863e-02 -1.9938355737177810e-02 -3.2563076061295831e-01  -1.4657444814896510e-02 -3.2269887460665864e-02 -3.2625109714093131e-01  1.8378360479243305e-01 -1.6994762789217671e-01 -1.9990966296834559e-01  1.7417745249080668e-01 -1.9814291650704338e-01 -1.7248634046553285e-01  -1.1840296793897372e-01 2.0816813765919029e-01 -1.1780440645029303e-01  -8.4819968785038308e-02 -8.3731354446027112e-02 -3.1995013323000610e-01  -4.6218682417713881e-02 3.1798719157303507e-02 -3.2622948974914734e-01  -2.4803565013201109e-01 -8.3897573094487130e-02 -1.3809767012056082e-01  1.8322317500634083e-01 2.7769791991683015e-02 -2.3924299093230000e-01  -8.6207703802030175e-02 3.3422207467548010e-02 -3.1609844220971089e-01  1.6805063670723761e-01 2.1273713962065996e-01 -1.8934121379596608e-01  1.3287109765982966e-01 2.3859494649357263e-01 -2.1322162627523397e-01  1.3447912306238505e-01 -1.9696575548795955e-01 -2.3191301235436959e-01  1.1437553659795255e-01 3.1820256239983580e-01 -1.2760024178834237e-01  1.0065259495701082e-01 -1.0980662947428731e-01 -2.9951234320509285e-01  1.3996233091435722e-01 -6.4773036750798554e-02 -2.8169405948775117e-01  1.1457142793501042e-01 -3.4923741370781268e-02 -2.9771354558580160e-01  1.1128200845455301e-01 1.41049750914580