<?xml version="1.0"?>
<VTKFile type="UnstructuredGrid"  version="0.1"  >
<UnstructuredGrid>
<Piece  NumberOfPoints="652" NumberOfCells="1956">
<Points>
<DataArray  type="Float64"  NumberOfComponents="3"  format="ascii">-0.1140538989093477 2.009894167858802 -1.553690017188709e-15  0.0272326153362361 2.62159937044638 -1.561785342935568e-15  -0.6650554607658241 1.950086079543657 -1.539199126601543e-15  -1.148049320553454 1.671267809162117 -1.099945403091148e-15  -1.507238341080457 1.239879800305411 -1.060738661875357e-15  -1.71280658291645 0.7255768114311469 -1.075167292459613e-15  -1.763207461311036 0.1743427701817663 -6.540814887860897e-16  -1.693669489545848 -0.3664285443682853 -6.225850709251021e-16  -1.481317142928228 -0.8598533055774882 -4.132350400692809e-16  -1.1316732594649 -1.264954317400719 -4.279791409608336e-16  -0.6617315880169825 -1.51599992285001 -3.997497366171361e-16  -0.1340095742764424 -1.593715411826371 -4.355188730444387e-16  0.3934800185959862 -1.499312450398046 -4.32390385271063e-16  0.8689423236100675 -1.247901073210367 -4.288554919540218e-16  1.253467214153586 -0.8767347694610076 -4.394222009204147e-16  1.49108824192973 -0.4009968247287543 -6.693772160241296e-16  1.569586080589013 0.1224255709966039 -6.578518667091208e-16  1.491185322005216 0.6403634519509097 -1.095558953259695e-15  1.242954165622299 1.108301615091356 -1.111987112539499e-15  0.8722433815030282 1.505994806177959 -1.093696365876321e-15  0.4098445687282006 1.813562211883744 -1.509170778919493e-15  -0.5996011500558235 2.673362946970622 -1.547988026475656e-15  -1.212541372223429 2.518447971756904 -1.533691337897446e-15  -1.755336993611419 2.188624325725256 -1.493201601504911e-15  -2.18763206738344 1.72440590696022 -1.083739108820648e-15  -2.486571886649422 1.167079599237245 -1.087385107120433e-15  -2.643159604472124 0.555088000434259 -6.458631541100694e-16  -2.666659185803182 -0.07368197555652385 -6.253744073995223e-16  -2.534538413737308 -0.6897132216983828 -6.440884160440401e-16  -2.266137178672432 -1.252481362661941 -4.241715900228421e-16  -1.880168376093196 -1.741479466969605 -4.133317500702939e-16  -1.406121416652843 -2.138837642431617 3.169479035170955e-17  -0.8432688891110168 -2.41214183477416 1.966700883139623e-17  -0.2281200826063884 -2.515455336308505 2.250515928178801e-17  0.3919598206380042 -2.453511187689392 2.223504184446941e-17  0.9725264813006826 -2.23621303801448 3.070107306350177e-17  1.485817865725738 -1.892542691972382 -4.184586863057413e-16  1.91444600083293 -1.44786720512253 -5.2120747768389e-16  2.24202919381919 -0.9322272041252226 -4.515396365606525e-16  2.470700213493181 -0.3597964356406992 -6.786019556517322e-16  2.564914985315824 0.2591206312272851 -6.448025982177397e-16  2.456083354552953 0.8816708446873933 -1.085300888008913e-15  2.151323553386849 1.433353388029358 -1.041549907905599e-15  1.714859163004987 1.882053017885613 -1.091608713988451e-15  1.190870594416605 2.217335359582039 -1.542145414912748e-15  0.6223117825561927 2.457367443867664 -1.574751719204601e-15  -1.660825204681587 0.9314636295355683 -0.4230148664900221  -1.456433797001441 1.176512311702217 -0.6946282256798864  -1.640032289027566 0.7840824688048563 -0.9885920771106383  0.6289039003810692 -1.744497669882207 -2.004193329704222  0.7039914079727141 -1.699370508299893 -2.545530526297878  1.039478356021033 -1.559644234241742 -2.129409946355001  -1.416370244661937 1.019983651922933 -1.199711781635549  0.9085287449799635 -1.585476337226725 -1.530018773121927  1.279036868136967 -1.342414801183933 -1.596658800236637  1.062540850896386 -1.525290666090608 -2.747816870652441  -0.1582075441587099 -1.799974879618107 -2.361010369737282  0.207567600894576 -1.824246551685383 -2.005468412367668  -0.1658838697770308 -1.827536625067499 -1.737592402316144  0.284649450307376 -1.792456464544917 -2.499641982141554  0.8420978634315395 1.505604166406103 -1.017086899525286  0.5892670220307696 1.705375341767896 -0.5050381872255368  1.041038628545117 1.436355043460767 -0.5915566996718025  -0.7471007914266259 1.665400744165099 -0.7960966310536093  -0.4523020907913671 1.88797611941466 -0.512613859563475  -0.3345946451289103 1.674568346377124 -1.043275921156104  1.064376874994168 -1.193670753660828 -0.3841457479024096  1.903704997295077 0.1776278519916019 -2.434492830898212  1.867532657125602 0.4019817118057026 -1.946305885119624  1.941498597420189 -0.02630071794865645 -2.016400779469919  1.944257515916783 0.1045385389190183 -1.458427737268683  -1.376826003593464 -0.008506076152809475 -4.413632357489837  -1.55068050520997 -0.05141337667474588 -3.922033000625537  -1.532336385039268 0.4944226885766657 -4.185449897568492  1.667494067726734 0.7826479187534766 -1.780316885097502  1.453097132370413 0.965233044432696 -2.140061295981426  1.334468695655188 1.111167262170706 -1.689899437548192  -1.918862410497232 -0.05299239607990992 -2.370552770758386  -1.889933739448795 -0.07021916670120325 -1.731436321903815  -1.8403899668231 0.4161018128986467 -1.971234470899133  -1.804861989017356 0.3644006295864487 -1.310504598019724  1.693063442419935 0.6671541779826962 -2.423764914338307  0.8523881262308572 -1.398841570027086 -4.484473805828016  0.8194887749281012 -1.232531851050722 -4.966021689252662  1.247987687660407 -1.181916280774682 -4.62062931978551  -1.861197018526047 -0.08558676388455377 -0.5369006530398007  -1.816112366640205 0.4597773721342815 -0.5920573241307668  -1.657006492141485 -0.8252857043647821 -0.4747433618408888  -1.822027941380741 -0.5129229204613905 -0.7568620254472864  -1.603674156772265 -1.032493855363261 -1.064207143854192  -1.323989896366124 -1.323548654257491 -1.501278844947185  -1.633863110373053 -0.9141319992063099 -1.756769951910272  -1.399467749514664 -1.192767242056193 -2.197141255590655  1.301558694839389 -0.9843141822497044 -5.195417077672436  0.09618419304996909 1.856184678926328 -0.6147542806775049  -0.9317789168056547 -1.610496393915893 -1.493991433813477  -0.5240292310619821 -1.77196197305243 -1.494489291215238  -0.6953561185328113 -1.710272614070522 -1.097095142533951  -0.6500565570090265 -1.697138029543049 -2.042196750354616  -1.59388308724486 -0.7094732587556043 -3.072602905282206  -1.591950422949496 -0.3642125421827149 -3.497159555051391  -1.280176053515227 -0.7751510504978036 -3.603234460083863  -1.170195228547187 1.539131269028829 -0.5053599250893015  1.525337706833077 -0.6347563397025011 -0.4791871653178847  1.349013052017855 -0.9915863934393586 -0.6703194277489377  -0.5861610880615986 -1.676912539114597 -0.5760350322458884  -1.136466150423429 -1.490488985139712 -0.9594906235270247  -1.883460110062729 -0.03903479443776267 -1.062436213423043  1.409247128770706 -1.278533071619494 -2.237429097575943  1.47203802510257 -1.220929796718656 -2.872558763015078  1.705424581812707 -0.8895960907983939 -2.306042698081355  -1.819321992207858 -0.279626756935166 -2.995137723866181  1.61876748133066 -0.9935499584388463 -1.665843818894797  -1.357755001320749 -1.22148378914586 -0.5066975200091981  1.872823646359667 -0.470947137223739 -1.751222723787541  1.600211851646619 0.9377309311161326 -1.199526543099909  1.817502889840691 0.4916365832632437 -0.9872960010712928  1.842973063903482 0.5467927122219005 -1.449733852082585  -1.767065344216181 0.1929030401327314 -3.508596926132703  1.85466394649096 0.09159333481499393 -0.8956545950923381  1.898136690090373 -0.2163056951148635 -1.199985901347651  0.3584501911061643 -1.797519399370243 -1.590144242079164  0.5542580070973835 -1.651573278553301 -1.067842925341691  0.07793190904937129 1.59452976830271 -1.307188871809476  -1.602618115039582 0.740331748289595 -1.548741982361432  -1.623720747258252 0.8083456750755308 -2.06437253146634  -1.826586553497 0.6130141514701013 -2.601379051485426  -0.999166620527864 -1.501994281574517 -2.370983661292461  -1.16513610976227 -1.34878403680523 -2.726913695849756  -1.829275994388688 -0.5004722162713301 -1.350933823135231  -0.9314240803646616 -1.368986631039415 -3.138460274947828  -0.5628388020714258 -1.497059132341977 -3.35409652470989  -0.6621366358959563 -1.630337848608439 -2.740946825556187  -1.126091533167646 -0.1157085653905595 -4.931549091726703  -1.133575275727944 -0.4314287016309548 -4.504401599465274  0.5582816840650134 -1.550252645609937 -4.16633689930768  0.7398473526969435 -1.669853936271608 -3.644489881159918  0.3066806014471085 -1.656378200138169 -3.776460278529786  1.055173361096677 -1.344907211397316 -0.9465708222565081  -0.786854159826591 1.38599228226249 -1.363417168408446  -1.249345988486993 1.071759161128268 -1.69545379257972  -1.142584767902651 1.325084991580807 -1.047495983504263  -0.8247684762324758 1.800740927538394 -0.3746408950744584  -0.8713388453441713 1.306485786354735 -2.051597488783816  -1.318392189212855 -0.4331283906732975 -4.051033005613876  0.5075179566608845 -1.730923945555593 -3.141215629151668  1.361244416522065 1.152333553051971 -0.6878613174053702  1.580129370293305 0.8168668690804637 -0.5568775679119662  1.196208907954259 1.307654081687109 -1.154897679297066  -1.282846647263595 0.393460624600319 -4.816269176872289  0.7216020183039037 -1.462527686555722 -0.5354480996333695  1.718637737977159 -0.2137865062003485 -0.5783846024384848  1.681217187314895 -0.6814135797055332 -1.090603231081426  0.194018269177451 -1.656027478953363 -0.5022116333835162  -0.4016958259946842 1.417705530412634 -1.681015782733675  1.42624303354292 -1.081333040602372 -1.200561343264979  1.734895708285715 -0.9547960503085623 -3.428741471649943  1.506890002922117 -1.262861602747661 -3.651588042897605  -1.735983776860967 -0.6761456954991871 -2.448588228888443  -0.191448432007876 -1.717052716621301 -0.5596290295142958  -0.1624934313479395 -1.791288572579833 -1.050491368885322  1.496420220039972 -1.144859615764896 -4.230593403062723  1.63544871708843 -0.8187968420418243 -4.708037604396837  1.761636488071848 -0.8800216012165258 -4.028637445462814  -1.457208601728459 1.117274985160492 -2.556949469531828  -0.5541132607456791 -1.256134487287507 -3.933129302388635  -0.0952836
[...]
<PointData  Vectors="f_3095611-0"> 
<DataArray  type="Float64"  Name="f_3095611-0"  NumberOfComponents="3" format="ascii">5.8873165336902906e-02 4.8813706541352886e-01 0.0000000000000000e+00  1.3311689327812737e-02 3.4893189590875345e-01 0.0000000000000000e+00  -8.4382292850008450e-02 4.8162754037719091e-01 0.0000000000000000e+00  -2.2191514565904355e-01 4.4119641489685563e-01 0.0000000000000000e+00  -3.4363747467627226e-01 3.6545149017316519e-01 0.0000000000000000e+00  -4.4323091809273890e-01 2.5037770652753866e-01 0.0000000000000000e+00  -5.1011776673961506e-01 1.1025347199880953e-01 0.0000000000000000e+00  -5.2585619400137484e-01 -4.6798752123913608e-02 0.0000000000000000e+00  -4.9265304979474095e-01 -2.0721410311064573e-01 0.0000000000000000e+00  -4.1614439384333179e-01 -3.5579210511860215e-01 0.0000000000000000e+00  -2.9666218609323070e-01 -4.7489408256459303e-01 0.0000000000000000e+00  -1.4675670681151740e-01 -5.5137408491683981e-01 0.0000000000000000e+00  1.6140488971391701e-02 -5.6952139256761503e-01 0.0000000000000000e+00  1.6766624066944424e-01 -5.2538275070755136e-01 0.0000000000000000e+00  2.8813244251518416e-01 -4.2173610848619519e-01 0.0000000000000000e+00  3.7267214075366595e-01 -2.7803008088153275e-01 0.0000000000000000e+00  4.1743861423475070e-01 -1.1396202623340455e-01 0.0000000000000000e+00  4.2259616364453056e-01 6.2215313939701700e-02 0.0000000000000000e+00  3.8814644274226123e-01 2.3195270982739463e-01 0.0000000000000000e+00  3.1136349898312721e-01 3.7147083017331972e-01 0.0000000000000000e+00  1.9878154962692854e-01 4.6047707454579573e-01 0.0000000000000000e+00  -6.8285600616080702e-02 3.2626599197536410e-01 0.0000000000000000e+00  -1.3293690978831399e-01 2.9193794570028803e-01 0.0000000000000000e+00  -1.8385223257320019e-01 2.5003701489884050e-01 0.0000000000000000e+00  -2.2477937450620958e-01 2.0284982235289004e-01 0.0000000000000000e+00  -2.6273170222318315e-01 1.4753282721222985e-01 0.0000000000000000e+00  -2.9265242013341641e-01 8.9959574282669513e-02 0.0000000000000000e+00  -3.1054812535225146e-01 2.2675176327891372e-02 0.0000000000000000e+00  -3.2089923179616675e-01 -4.5919736250728968e-02 0.0000000000000000e+00  -3.1477814208348714e-01 -1.2250119244794466e-01 0.0000000000000000e+00  -2.9140332802268826e-01 -1.9668812983609876e-01 0.0000000000000000e+00  -2.4380153909105312e-01 -2.6223876181132921e-01 0.0000000000000000e+00  -1.8934722897463913e-01 -3.1362015862222764e-01 0.0000000000000000e+00  -1.1799966413931713e-01 -3.5157036575308021e-01 0.0000000000000000e+00  -4.0882467810959111e-02 -3.6769557090919969e-01 0.0000000000000000e+00  4.2906846606794002e-02 -3.6406863691153174e-01 0.0000000000000000e+00  1.1831951269242111e-01 -3.3021855966708963e-01 0.0000000000000000e+00  1.7293248224151317e-01 -2.7177095678510865e-01 0.0000000000000000e+00  2.0964283839614217e-01 -1.9165222702225773e-01 0.0000000000000000e+00  2.2209259840881837e-01 -1.0903272118734170e-01 0.0000000000000000e+00  2.1665531919592493e-01 -4.1796485485781271e-02 0.0000000000000000e+00  2.1418970342115504e-01 1.7843079189389828e-02 0.0000000000000000e+00  2.2307593595915481e-01 9.4611815942425251e-02 0.0000000000000000e+00  2.1394744156825965e-01 1.7966745732747955e-01 0.0000000000000000e+00  1.7762400980921997e-01 2.6867768300499323e-01 0.0000000000000000e+00  1.0597309907405471e-01 3.2933990902403304e-01 0.0000000000000000e+00  -4.1025823174173748e-01 2.8321489670105898e-01 -4.9762529307046388e-02  -3.5656699922414298e-01 3.5080835515516995e-01 -8.7320138223536764e-02  -4.1995231277569667e-01 2.5994483014339514e-01 -1.0793772423363385e-01  9.2199954994021574e-02 -5.2857777700529329e-01 -1.8185374297447826e-01  1.1526643658026424e-01 -5.0729517708845295e-01 -2.4102303998985930e-01  1.9702430559208417e-01 -4.7309261256709728e-01 -1.8742765906543896e-01  -3.6960522510249783e-01 3.3928582634502058e-01 -1.3255834965777344e-01  1.6435546860495429e-01 -5.0735080330032711e-01 -1.1942163970476576e-01  2.5674250436319868e-01 -4.3878939473227363e-01 -1.2025135706538094e-01  2.0647858523503063e-01 -4.4791785407960716e-01 -2.4947977778134275e-01  -1.0254008293420903e-01 -5.4724391959155561e-01 -2.4045128884351860e-01  -1.3932041276785493e-02 -5.5178410643309705e-01 -1.9032046471480854e-01  -1.0997893795801506e-01 -5.5022591959204603e-01 -1.6472851257664625e-01  9.8935013115163881e-03 -5.4132831014103033e-01 -2.4641959235884905e-01  2.3536713869043166e-01 4.4597203160322857e-01 -1.0402498919662535e-01  2.0597612681865685e-01 4.6037223527279503e-01 -5.5539097739824121e-02  3.0123886468335048e-01 3.7041004288778134e-01 -5.0987717521229776e-02  -1.7105756363955957e-01 4.8817111360160553e-01 -1.1228569414922364e-01  -6.8439724979728750e-02 5.0111595858359104e-01 -7.2325709072818822e-02  -7.4534289130911563e-02 5.2777760564991261e-01 -1.3593345965041997e-01  2.3216113268487071e-01 -4.8121149313421485e-01 -9.8316747691708922e-03  4.0429365576746867e-01 6.2391131916008785e-02 -1.9412381913210128e-01  3.9582622086528851e-01 1.0081724219306980e-01 -1.5709412343137791e-01  4.0524309481954834e-01 -2.6803852507427634e-02 -1.6020146334103877e-01  4.0167443268763081e-01 -2.8545958021278805e-02 -1.0758653621710322e-01  -3.5238495855667906e-01 -1.4737100862449420e-01 -4.7369914078910513e-01  -3.9018121308645604e-01 -1.4343123416506837e-01 -4.2882017663634481e-01  -3.4606755555663715e-01 6.9556032620808634e-03 -4.2716611305117025e-01  3.6928563724003027e-01 2.2147912895098659e-01 -1.4844639190070558e-01  3.3476078653393637e-01 3.2549008341119390e-01 -1.8094635435171769e-01  3.1534990181055572e-01 3.5094643272231907e-01 -1.4908965074006245e-01  -4.5377073801908313e-01 -4.1850450288856117e-02 -2.3518509421744724e-01  -4.7462294965335161e-01 -6.5337072309192626e-03 -1.6806804744377987e-01  -4.3613801982810235e-01 1.2169548348127865e-01 -1.8589409244555274e-01  -4.5937581326993282e-01 1.4018052637373091e-01 -1.2941545543324781e-01  3.7487986593788708e-01 2.2838453649956367e-01 -1.9795286085373201e-01  1.6247532211280211e-01 -3.8549724939302610e-01 -4.4474159270777736e-01  1.6459985659756426e-01 -3.5673833417089446e-01 -4.8788140984341644e-01  2.6169535879891448e-01 -3.0342846110856420e-01 -4.3679415750493028e-01  -5.0238157513584325e-01 2.0601938756830560e-02 -4.6114288782299777e-02  -4.6883813627552884e-01 1.6594149685058687e-01 -6.0938381931251104e-02  -4.8171619831651630e-01 -1.9117139616458351e-01 -3.3608087317267714e-02  -4.9551498591955945e-01 -1.0087624218104872e-01 -6.6720395726332107e-02  -4.4964336276428807e-01 -2.6205683144710901e-01 -9.8860665880071169e-02  -3.9092235537335690e-01 -3.7477615105644979e-01 -1.4964290010334702e-01  -4.5197018080750839e-01 -2.6187824237790619e-01 -1.7804705361460363e-01  -3.9605897515682759e-01 -3.6735031838470883e-01 -2.3172614622083085e-01  2.7934791958610916e-01 -2.4560056290034299e-01 -4.7771891528663113e-01  7.1775276873640131e-02 5.0772156471553864e-01 -7.7717025987383628e-02  -3.0107214465519694e-01 -4.6551574108248228e-01 -1.4483667943297976e-01  -2.0003252723242429e-01 -5.2240484429901179e-01 -1.4015292566508672e-01  -2.4928480871638853e-01 -4.9454290895420633e-01 -9.5198093994276756e-02  -2.2618072014442103e-01 -5.1688397735920222e-01 -2.0938489462575038e-01  -4.1654204720303833e-01 -2.7472704707746703e-01 -3.4610114920966789e-01  -4.1418204499070033e-01 -2.1316330556370144e-01 -3.9465624733194637e-01  -3.7620450511519954e-01 -3.4139227702942715e-01 -4.2136184151474015e-01  -2.6488578582114725e-01 4.2591961405862655e-01 -7.0107891018740057e-02  3.6115529461768453e-01 -3.0929207298204259e-01 -1.2360322692931655e-02  3.0344138419059297e-01 -4.0106536389793179e-01 -2.8289417876104478e-02  -2.3719087974341982e-01 -5.0217041910560700e-01 -3.5933975683927526e-02  -3.5650911470446889e-01 -4.0726479962743395e-01 -8.1827744460445329e-02  -4.9020675761665239e-01 2.6112753414704051e-02 -1.0413625107099336e-01  2.8794533522567278e-01 -3.8567954180880482e-01 -1.8979957489524305e-01  3.0398594283731867e-01 -3.3981672457309881e-01 -2.4505695872611535e-01  3.6088541187216877e-01 -2.6749795162847823e-01 -1.8833622109324002e-01  -4.3403811749393234e-01 -1.4814623467697827e-01 -3.2141791561628036e-01  3.3583325671837544e-01 -3.3050586772197171e-01 -1.2477477798326138e-01  -4.2430594580656988e-01 -3.2342094756984230e-01 -3.3859873984907841e-02  3.9193074081028739e-01 -1.7723729574452260e-01 -1.3448611154954382e-01  3.6454469040939186e-01 2.2286210078919153e-01 -9.3690947211434769e-02  3.9785385348025759e-01 5.9580932463163871e-02 -6.2334451693999988e-02  3.8904446082152550e-01 1.0563384331977924e-01 -1.1177188912472232e-01  -3.9954094808976098e-01 -4.9624885209523011e-02 -3.6987661698088609e-01  4.0497269096798777e-01 -6.6217132038074375e-02 -4.7961443352483826e-02  3.9481325843893617e-01 -1.3769489067058402e-01 -7.8386142803286429e-02  2.2148233832228637e-02 -5.5141344148589833e-01 -1.3679896626900212e-01  7.9298123509963445e-02 -5.4954364624461938e-01 -7.3475596569570173e-02  2.7896441386574627e-02 5.4513170725697535e-01 -1.5159181270106528e-01  -4.0789320583148758e-01 2.5551860493422607e-01 -1.5028527364486183e-01  -3.8881991762232487e-01 2.4489815569335863e-01 -1.8937239602609932e-01  -4.0141086387616354e-01 1.3208546363583687e-01 -2.4705129926593319e-01  -3.0416738044604391e-01 -4.6508162809971382e-01 -2.5280866922175199e-01  -3.3376559163240777e-01 -4.2799080179697796e-01 -3.0190519635564367e-01  -4.8666913170965970e-01 -1.1696425679446619e-01 -1.3161424771547442e-01  -2.8933377067999461e-01 -4.6193290282305283e-01 -3.5883176048495230e-01  -2.0570090593849527e-01 -5.0242928126816633e-01 -3.7915495204420008e-01  -2.2207569355665632e-01 -5.0950402420133190e-01 -2.9723649564585725e-01  -2.9560914146069545e-01 -1.7981706553324922e-01 -5.2472684222733879e-01  -3.2732976634466376e-01 -2.7324706377272301e-01 -4.9987540319822049e-01  8.1610582560427206e-02 -4.4128684329851625e-01 -4.2563880167435852e-01  1.2079994202629070e-01 -4.4619485559091082e-01 -3.5698290657228060e-01  1.2789659302734416e-02 -4.8367381031183171e-01 -3.9260341101447188e-01  2.1953999801673191e-01 -4.8666522810549129e-01 -5.4788379274888839e-02  -2.1582952301081626e-01 4.8741147524469475e-01 -1.5953090869746794e-01  -3.2795849744536154e-01 3.7905653544906626e-01 -1.6206680858852213e-01  -2.9182463437267764e-01 4.2126336420156235e-01 -1.2969763105948640e-01  -1.6179833703761284e-01 4.7334259703534942e-01 -5.5697855715790286e-02  -2.2667552242840572e-01 4.6959817284862715e-01 -1.8179987908908044e-01  -3.7225393843256571e-01 -2.6528975242466790e-01 -4.5833773556430757e-01  6.4989387075778643e-02 -5.0052785637068464e-01 -3.0993158216937794e-01  3.5530857302859803e-01 2.7320487558891904e-01 -4.8776262671063213e-02  3.9689066925046224e-01 1.4519125998856483e-01 -2.6884677810700617e-02  2.9991369312762689e-01 3.6596164807929238e-01 -1.0377537838927994e-01  -3.0598390312086393e-01 -3.4179976582424956e-02 -4.8497948970563692e-01  1.3098189105560679e-01 -5.3867564587380801e-01 -2.4932807232940044e-02  3.9862254433804722e-01 -1.7713752608344746e-01 -1.7519182024051193e-02  3.6735320014415429e-01 -2.8484865343344062e-01 -6.2298624176355934e-02  -2.3459529259726098e-02 -5.6538330975402884e-01 -2.4912948792459023e-02  -1.1436589022344310e-01 5.4328919597631464e-01 -1.7544000123786607e-01  3.0634423363494817e-01 -3.9426379498477493e-01 -7.4666088478706261e-02  3.5713837860476361e-01 -2.2540585807951435e-01 -2.8582185123636095e-01  2.9740512526519258e-01 -3.0122861664155259e-01 -3.2370419876989670e-01  -4.4711077881608224e-01 -2.2620864854028797e-01 -2.5720329486261040e-01  -1.3108930583444503e-01 -5.4551564002353170e-01 -3.3228990837784911e-02  -1.1424713240650158e-01 -5.4909147840386496e-01 -8.2714350095575442e-02  3.0597017462419029e-01 -2.6863473837848928e-01 -3.8660769924393051e-01  3.4980326999824474e-01 -1.8521767333551206e-01 -4.1917473454030735e-01  3.6185415370257606e-01 -1.8819103895007697e-01 -3.5029639050982869e-01  -3.2907482274738198e-01 3.0374587171248124e-01 -2.2762503711413193e-01  -2.1624579228167948e-01 -4.7454158487587739e-01 -4.5115651708775761e-01  -8.9344232647946123e-02 -5.1027279711993889e-01 -3.8943207603648816e-01  3.9802341753351766e-01 -8.9664726539602599e-02 -2.9520126915416772e-01  -7.9767390006030114e-02 -4.7775933139231080e-01 -4.6611748633878153e-01  -3.1105392096017387e-01 -3.8202756199206483e-01 -4.7830048886258897e-01  -3.0036435782470688e-01 -4.3891077251450655e-01 -4.2005999153717127e-01  1.9388415046318752e-01 -2.7409438492533095e-01 -5.3582763014595236e-01  7.3505063936465151e-02 -3.5622876225073041e-01 -5.4344666416081744e-01  -2.3873326604144582e-01 4.0093484992133210e-01 -2.5111474277721763e-01  4.3998411306436572e-02 -4.3141268779586162e-01 -4.8430471026381389e-01  1.6168500702661921e-02 5.2880430574053394e-01 -3.4755999999380105e-01  8.8829764757914625e-02 4.9109522617764795e-01 -3.8798011583903891e-01  -6.2164157341653835e-02 4.4427200332843891e-01 -4.4765594752438648e-01  2.0950402410261634e-02 4.2462595716737017e-01 -4.8318393647629865e-01  -4.4388525698045259e-02 5.3138685296091914e-01 -3.0488037444810484e-01  8.0568698533662469e-02 5.6068982786357391e-01 -2.7496318168452155e-01  3.5749910425962303e-02 5.6582659792749845e-01 -2.3409325642019135e-01  3.5361846195220936e-01 3.1970358690167339e-01 -2.4611180876113772e-01  2.8695417217027741e-01 4.2683987124851330e-01 -2.8109739093847563e-01  2.6531585190009654e-01 4.5917197613723298e-01 -2.4310528690969585e-01  3.4127350980715987e-01 3.3026391395376664e-01 -3.1660583329230962e-01  2.3884201104544972e-01 4.5456330976923714e-01 -1.5739099038079771e-01  2.5870820371967901e-01 4.5291158231199169e-01 -1.9875689918766526e-01  -1.8874463562882715e-01 3.1562650791790370e-01 -4.7144795161545344e-01  -1.1391542770044366e-01 3.1158761995311340e-01 -5.3736015747220534e-01  -1.1708413133481692e-01 4.5774297677980480e-01 -3.9049699118012449e-01  -2.0962396350723392e-01 -1.8876623572327977e-01 -5.7637464865496324e-01  -2.5488682869288615e-01 -5.3569867858203300e-02 -5.3674818507166377e-01  -1.9509788523038302e-01 -4.6317483521052388e-02 -5.8710448413100735e-01  -2.2830702756596438e-01 8.0656703314598718e-02 -5.3766130372249088e-01  -4.7246680655370499e-01 -1.4206203802720385e-01 -1.9713216367262140e-01  -2.3428837540485581e-01 3.7522407421823373e-01 -3.1305424837394202e-01  -2.8585438681008962e-01 3.1316847996714914e-01 -2.9422448837808957e-01  -2.8179308220121219e-01 2.8397543009040954e-01 -3.5558516475023133e-01  -4.2481626706891873e-01 -1.7846999784693833e-02 -2.9032907671741137e-01  -3.8111473117490091e-01 7.2651679289048587e-02 -3.2456976201128424e-01  -8.2425298488451995e-02 -5.3199184478470118e-01 -3.1455300016935273e-01  4.1543575688018819e-01 -3.1353364560581499e-03 -1.3791280576429636e-02  3.9558728080540884e-01 1.7642601008308983e-01 -2.2963946436279833e-01  4.1233094483248706e-01 4.6534953752263936e-02 -2.3320742223777816e-01  -3.0490712331502351e-01 1.8693018781779056e-01 -4.0226805399710519e-01  -2.2189684678976446e-01 3.3407218513045711e-01 -4.0504996630297357e-01  -2.7801696174145152e-01 1.6044707060048843e-01 -4.5214414032498490e-01  -1.8103790337993814e-01 4.2441643300599835e-01 -3.4804455585404515e-01  1.3162977703553411e-01 5.0668071511436297e-01 -1.1353431543925352e-01  4.0095275100571764e-01 1.7300080620589472e-01 -2.7812085766857542e-01  -3.4189942229085479e-01 -4.2843219494893825e-01 -2.2713630963439386e-02  -8.5938424192351537e-02 5.4489321248794476e-01 -2.0022243401888584e-01  -1.5673747836722532e-01 4.6412049936290312e-01 -2.8825132386457952e-01  2.1726038066147807e-01 -3.6487945548004691e-01 -3.8627428296104294e-01  -3.4033713435251672e-01 2.0925562526404359e-01 -3.0420367786201918e-01  1.4328020292889099e-01 5.2353949775030839e-01 -1.6071458877810701e-01  -3.4703542380031438e-01 1.2732573329381150e-01 -3.6505542839915750e-01  -3.6256761210351290e-01 -3.8480211994765784e-01 -3.6651440092455440e-01  2.4941309977747395e-02 5.6436322286123519e-01 -1.8746813222459155e-01  8.2780940113539758e-02 -5.8391954456856313e-02 -5.9884841225413443e-01  1.6543665315270675e-01 -1.7474905797896939e-01 -5.9073131349454144e-01  5.3151241035501125e-02 -1.4646348453148683e-01 -6.1412812830829089e-01  4.0428276067772412e-01 -1.1347670360818705e-01 -1.9442468524167822e-01  3.4124912380071543e-01 2.7592881205386016e-01 -3.9795278809740103e-01  3.8246992060204604e-01 1.6276710934926558e-01 -4.0837471629383265e-01  3.3202506557027495e-01 2.0760944093473560e-01 -4.5854309683401495e-01  1.7180106842823936e-01 5.3605179172426443e-01 -2.3601430569896956e-01  1.7303781999656159e-01 5.2140725163641022e-01 -2.9587113486243394e-01  3.8299282963625003e-01 -1.9350488003817903e-01 -2.3629246991955327e-01  4.0913842595748962e-01 -6.6110069860122508e-02 -2.4079449401220060e-01  -7.6223819265938519e-02 5.2872627266472871e-01 -2.5537772368767958e-01  -1.6344260118787235e-01 4.8768984884004257e-01 -2.2550143761660574e-01  3.9615363243065183e-01 1.7944715711832232e-01 -3.4820261352631454e-01  -1.6789763487416065e-01 1.1712827509804134e-01 -5.7368366029428663e-01  -8.1241234228384349e-02 2.2738175151021434e-01 -5.8506785227527047e-01  -9.6835617990180020e-02 8.7584599249938902e-02 -5.9698905064801455e-01  -7.6980782045924069e-03 1.8102431181158707e-01 -6.0283508190196611e-01  8.5840359397361524e-02 2.3645863181377319e-01 -5.7654658237992762e-01  3.4270574865071041e-02 2.9528034408762421e-01 -5.7394364198965397e-01  1.5691914468897894e-01 3.0142890881133899e-01 -5.3701164602434470e-01  1.1338697178478435e-01 3.6693182436089206e-01 -5.1575353767910270e-01  -3.9648719945138378e-01 -3.4221761532872014e-01 -3.0435254160063518e-01  -3.3113779486972761e-01 -4.4629723475686472e-01 -1.9519308582391862e-01  2.2640797125836323e-01 4.4699184162974848e-01 -3.5328067112547684e-01  2.7602316341688726e-01 3.7102950133159052e-01 -3.9190633058573526e-01  1.6205055172910998e-01 4.1771806881402079e-01 -4.4118196477290006e-01  2.3993217024735747e-01 3.2973877120892303e-01 -4.6910780432897942e-01  -4.6435268114560016e-02 -1.8702605502504371e-01 -6.1196851060017288e-01  -1.6674988058490107e-02 -3.1350923924587393e-01 -5.8455228175544161e-01  -1.1948159581453009e-01 -2.7792170450036080e-01 -5.8819248022992787e-01  5.6358701064688474e-02 -2.2806989412532813e-01 -6.0452253242508036e-01  -2.3556185200046720e-01 -3.2451796638572894e-01 -5.4359380998018214e-01  -1.3715037111383796e-01 -1.5584847361810486e-01 -6.0679024193890974e-01  -1.3239463081872913e-01 -3.9455623763536181e-02 -6.1521269664642753e-01  2.7418056623037868e-01 -1.6352060361348347e-01 -5.2467043064870256e-01  4.1342060565517075e-01 4.9769683902626510e-02 -3.2455457428576018e-01  1.4775308547289240e-01 5.3694894843658647e-01 -1.9710893057630383e-01  1.0824651008715014e-01 -2.7584602258424673e-01 -5.7852112655615318e-01  3.2529740370502297e-01 3.6863155469555176e-01 -2.1389705108162488e-01  -8.5337390045185660e-02 -4.0878866566521771e-01 -5.3745674078613215e-01  -2.0617646456411615e-01 -4.3391606159782403e-01 -5.0207445890292923e-01  4.0017004444029119e-01 -6.3917871387164663e-02 -3.6838777663599170e-01  3.9345437063197269e-01 -4.5548294609750732e-02 -4.2100583496983046e-01  4.0939447675678181e-01 5.7569124726490305e-02 -3.8518733163344704e-01  9.0351087165849858e-02 1.1168600858279731e-01 -5.6316743301467154e-01  -1.0873621307697836e-02 5.4651844745830319e-02 -6.0160344541533617e-01  3.7561405854594826e-01 7.0668216167434517e-02 -4.5609614557540845e-01  1.9691268201548973e-01 -9.9816423238858528e-03 -5.6830161453887063e-01  3.5317496023040751e-01 -1.0270758100222586e-01 -4.6812396213706597e-01  2.1480792287300540e-01 -4.0635882745756635e-01 -3.0601231580283594e-01  4.1202906573916420e-01 1.6864995985381177e-02 -2.6879044802909441e-01  -1.5621960632462611e-02 3.4646078599286639e-01 -5.4867080945605973e-01  -2.6455537878066299e-01 6.4902785088465531e-02 -5.0308203882041158e-01  -1.9366694821901742e-01 2.0679828208166640e-01 -5.2931299508199137e-01  -2.2928496949306174e-01 1.9369726275264079e-01 -4.9607187809862058e-01  -2.9752641484844113e-02 -6.2055031597519655e