<?xml version="1.0"?>
<VTKFile type="UnstructuredGrid"  version="0.1"  >
<UnstructuredGrid>
<Piece  NumberOfPoints="590" NumberOfCells="1766">
<Points>
<DataArray  type="Float64"  NumberOfComponents="3"  format="ascii">0.2280919663968572 2.220082308562588 -1.332930838317096e-15  0.3608635901730965 2.92550215935253 -1.349579652718011e-15  -0.4319017957562568 2.236380966818995 -1.310346789164498e-15  -1.036660200069165 1.954492209611703 -1.331157568055048e-15  -1.51925437188535 1.484347518257839 -8.712477996651552e-16  -1.833793305057122 0.8908494666173012 -8.963253252983854e-16  -1.976420717972404 0.2356172378114758 -4.340352096416872e-16  -1.952465197770256 -0.4281766293212252 -4.281589829908637e-16  -1.736204101104506 -1.046264649429387 -4.322929047580598e-16  -1.325400978728455 -1.552132073606359 -4.303393612617962e-16  -0.7505542140453821 -1.859216664787904 -4.450325647851359e-16  -0.1010300811640196 -1.940261889549199 1.270728296560294e-17  0.5448333207577368 -1.811588410548177 -4.358495536726103e-16  1.1219194623988 -1.48558155196938 -4.409732628995351e-16  1.54444488030491 -0.978370584037996 -4.389630885705587e-16  1.788285402141953 -0.3694271712180361 -4.395567809194997e-16  1.833080572866273 0.2803021042727794 -4.404259617124057e-16  1.673795543179491 0.9088485176599234 -8.717909864353384e-16  1.310609946894924 1.459579256096109 -8.634846063343031e-16  0.8207363602036467 1.909220593340033 -8.8341696052377e-16  -0.3410781401154731 3.022455849165137 -1.322194244299802e-15  -1.038936168519363 2.888190515945833 -1.316096079340426e-15  -1.668492819271844 2.560949705126121 -1.325145019539013e-15  -2.192623610351603 2.078840740976517 -1.317860077003056e-15  -2.576615090714565 1.485329951304284 -8.90619411442597e-16  -2.814930449662024 0.8214910641376411 -8.859825546596564e-16  -2.909650798676537 0.1225502639879385 -4.025502424323233e-16  -2.855397704340295 -0.5821679760762556 -4.344432675673519e-16  -2.645266826937578 -1.253702801505862 -4.226029532793398e-16  -2.276946177487165 -1.854880623324482 -4.224792273870433e-16  -1.777666567455718 -2.35300443556426 4.295255992616271e-17  -1.17334745176609 -2.713204943362804 -2.17138605748143e-18  -0.4922097251130982 -2.90200207591839 4.863087738821987e-19  0.2171789433276273 -2.908580567801784 2.346820687652523e-17  0.89814296506535 -2.721613359370218 2.298398894368817e-17  1.514493047864083 -2.382776375698892 -2.645679720328882e-18  2.044592666700999 -1.924248631915175 -4.22659377575515e-16  2.476856690448233 -1.368084845780819 -4.398281757600725e-16  2.798825094065464 -0.7379738053703111 -4.657655410772262e-16  2.958108058878133 -0.04227175072152643 -4.16191977685285e-16  2.890249056367172 0.672035630021539 -4.216059707507616e-16  2.615289843130824 1.333352436953393 -8.758791540105166e-16  2.179956263908672 1.894601664487821 -8.594359716967155e-16  1.63498562770339 2.342287329346362 -1.298030452796908e-15  1.025078185705417 2.683780158740443 -1.310121915974051e-15  -0.9386723575500044 -1.975596789284073 -1.216930312532982  -0.9937626995452441 -1.882038410461756 -0.5280599101242323  -1.370739018753328 -1.70725908649366 -0.7734504012317809  -0.4656209853106433 -2.04064242557211 -0.6786497838648109  -1.85571555429841 0.9336303902213883 -0.8505905386205158  -1.509458335261076 1.473747469186074 -0.5770132153685141  2.058441036399109 -0.05755411986521104 -0.6006382268793791  1.999571857523708 0.5344196967948753 -0.5556398490886562  -2.04333723975545 0.4524266337072249 -0.7086768539560522  1.742836641926744 1.09470485807581 -0.5700244025120479  -1.626834664872183 1.163478112196527 -1.402284652072616  -1.822645182314427 1.000363797908977 -2.052581088619886  -2.049452359520998 0.489373339242447 -1.580843994527714  -2.204726005987595 0.3030448689922919 -2.444747449717405  1.428125947071734 1.500398345598637 -0.7221119171636114  1.70441244420231 1.236470958695362 -1.200555502569065  1.358452392481163 -1.614476919070067 -2.182547112973785  1.569890514782746 -1.394662790474615 -1.667407771458346  1.184334214217181 -1.718428738227601 -1.544321424214855  1.25662720352378 1.598653668002323 -1.287237245872536  1.447468476884854 -1.421926281065604 -1.066526168945034  0.9675680512976987 -1.822695662862035 -2.668031629087151  1.462291181507789 -1.422511798268969 -2.768703273126381  1.073834519045407 -1.605800452731956 -3.44205980687676  -2.050676522417451 -0.6707524387766153 -0.673686065187416  -1.751002877741217 -1.321366206481782 -0.6561841349683081  1.458356747069248 -1.287308087879426 -0.4955013020365275  1.89608109239032 -0.7382268135039398 -0.74397260633911  -2.152467370833234 -0.09090034765299071 -1.158355672828392  -2.171361144945672 -0.1581131638662725 -1.863054022351115  -2.1089577579478 -0.6353842028821219 -1.438860070489444  -2.101625334775798 -0.06291900098747852 -0.544575031870716  -2.019679757611254 -0.8336642147895993 -2.159520023066275  1.898359289844369 -0.9508889739380563 -1.463563721074628  2.157792530120102 -0.3163085848617442 -1.327568652898145  2.15346658305067 0.3690039003069766 -1.294631668214867  0.9753795165078456 1.83414968298529 -0.781537532414894  1.188243217968888 1.702933584088716 -0.4009322964046069  1.57758726662449 1.282889659611194 -1.700454708079641  1.532255524006918 1.214231940619317 -2.29729658619206  1.109866617896554 1.573040384916342 -1.842442379643021  2.063617306714522 -0.5483469323466484 -1.942891747930678  1.037394607027715 1.520298759613177 -2.522117792242455  2.152377399311228 0.1017416795873153 -2.070907899425751  1.95035634015049 0.8269275759084789 -1.764244744230279  -0.241385845733966 -2.115621628449629 -1.29105749639875  0.6012674840047827 1.892249392877697 -1.376208661003143  -1.928946707795432 -1.110271246945183 -1.110021936410669  0.4880329726713979 1.743233734353713 -2.079826239891418  -1.197871574870149 1.594375151012 -1.210112611515842  2.007555000536324 -0.4396379947418403 -2.643884341630175  -0.1650218245453069 1.857291552917452 -1.641151450362201  -0.1529085506302781 1.781743665458393 -2.49294022998735  0.4055309551434382 1.751066552337395 -2.958091791981039  -0.6619564342626252 1.939818583465815 -1.03995034648269  0.01132969707416435 2.140995734378603 -0.8988204825333982  0.7790089552183002 -1.975585343519976 -1.917004227154717  0.02558801614171031 -2.137816660456505 -1.878463801926409  0.2984869602220953 -2.088999976263547 -2.447500827321445  0.3348775311415482 -2.061344883988439 -1.388593980801077  -0.5092804231204714 -1.961762774821165 -3.135531940334281  -0.9631801341834152 -1.813426539486429 -3.038568304868266  -0.7752410593766125 -1.700072453927211 -3.765252719713228  0.9865629973653529 -1.696655391250415 -0.6084723237732608  0.2781954746881694 -1.993002896577129 -0.700637695278029  0.8643690263410804 -1.853060695714603 -1.202379638857002  1.905823546881775 0.7234748289110352 -2.537854960424997  -1.378294816635409 -1.448984164518379 -3.45527301368569  -1.562489945483526 -1.592954623261468 -1.416056925685611  -1.877418038526514 -1.163179146499991 -1.712921588185867  1.968958142337156 0.8694833316983369 -1.106804702859906  -2.155620926366316 -0.4152215120469298 -2.52107147541615  1.8033654176641 -1.065067589878407 -2.27621230957047  2.009322453597336 0.271533136211359 -3.027285917630915  -1.071459605081421 -1.864356825651489 -1.919611182604089  -1.596180714393397 -1.451729917475258 -2.192333316929535  1.648926522015846 1.010469979076985 -3.167528074909417  -0.07222978613028415 -1.942834228456267 -3.486129810884159  -0.04594564909234153 -2.049087748889937 -2.933838271861528  0.509830132945252 -1.945826973824953 -3.064450142628941  0.5070064979386629 2.10145466924712 -0.5912508496252862  -0.1355046297014897 -1.754200545410834 -4.099310945818013  0.6369093097927145 -1.301305204211872 -5.059850510165375  0.4105315864255631 -1.594656294761219 -4.493981488328017  -0.1114242251119593 -1.413968015250584 -4.880411324904975  -1.388819120709365 -1.573384536898174 -2.84905720360438  -1.855273299573737 -1.064850462895999 -2.995069211649143  -1.722278340725615 0.4423909678595138 -5.124116456459952  -1.731767133616042 1.050613902026372 -4.877529376348944  -1.498864927404787 0.9491443330976401 -5.569638067319078  -1.164351405923438 -1.262660150117105 -4.135879690162972  0.9877491930612012 1.734198099075378 -4.596632447480054  1.308070233232075 1.428143974590845 -3.915618022943406  1.557356652592959 1.306081764641365 -4.731088704639545  1.792556189654817 -0.8375669835596704 -3.057582451518473  -0.3342784838421872 2.215921329030396 -0.492172199061278  -0.3883624922521885 1.951879068601418 -3.397514878704753  -0.8197232700558358 1.777340464748334 -2.745151268040789  -1.293570246497515 1.440716965670729 -2.097234150406771  -1.944249258184616 0.6644939396547276 -4.476978515979376  1.844900651214541 0.1381996265050403 -5.224425314985378  1.600089632502081 -0.4820682950602412 -5.103132005345825  1.608582630033639 -0.2248509139101094 -5.735929726013806  1.366010053110987 1.305389693057029 -2.741992338575032  1.108302189120671 1.467958209064264 -3.158514193353671  1.515374549273427 -1.17057238120638 -3.410072596673192  1.875215564998529 0.6276841951410133 -4.644043460787109  1.705051555163375 0.9922075548181204 -4.052431935180115  1.922891945377826 0.4396370158552703 -3.803696521801295  -2.10217738146493 0.8315292803348667 -2.821712691191554  -1.762330550195201 1.311475051888018 -2.85116365483418  -2.167400689192393 -0.2995110102923893 -3.118470875097209  -2.234542952560195 0.421766088258369 -3.231073835038283  -0.5384662254790409 -2.040889757101821 -2.38716765889269  -0.8015251124177163 2.061861681477013 -0.4195686428395412  -1.129191139224565 1.798222016597844 -0.6777157094600565  -1.112932966098216 -1.809632057072468 -2.424050134457964  -0.6434918604743293 1.697786960460034 -2.140166389578552  -0.6448294663558635 -1.488482730592447 -4.330071793910584  -0.5690770190209262 -2.069973408034583 -1.750012224978427  -0.8593712287630668 -1.131987278103509 -4.778038359992482  1.749155557089272 -0.6559106916132984 -3.855594645132043  1.935178859865
[...]
<PointData  Vectors="f_267140-0"> 
<DataArray  type="Float64"  Name="f_267140-0"  NumberOfComponents="3" format="ascii">1.0963413001451430e-01 3.5614409994439322e-01 0.0000000000000000e+00  4.4173996993689575e-02 2.4983220460183375e-01 0.0000000000000000e+00  -1.8061347597836900e-02 3.6636675513693306e-01 0.0000000000000000e+00  -1.4835770936912823e-01 3.4885498052126596e-01 0.0000000000000000e+00  -2.5857443863456719e-01 2.9608879678414696e-01 0.0000000000000000e+00  -3.4736431216068014e-01 2.0933301672122218e-01 0.0000000000000000e+00  -3.9382334282519660e-01 9.4135389553475571e-02 0.0000000000000000e+00  -3.9927209813792691e-01 -3.6344810437297183e-02 0.0000000000000000e+00  -3.6174210823333941e-01 -1.6869249475065209e-01 0.0000000000000000e+00  -2.8615350727020050e-01 -2.9097167104879273e-01 0.0000000000000000e+00  -1.7957367870963739e-01 -3.9068650348946099e-01 0.0000000000000000e+00  -5.1773515784161984e-02 -4.5271526174404214e-01 0.0000000000000000e+00  8.2791378119649789e-02 -4.6262398815263195e-01 0.0000000000000000e+00  2.0188390035314224e-01 -4.1527473600666026e-01 0.0000000000000000e+00  2.9718878455591219e-01 -3.2277720881448935e-01 0.0000000000000000e+00  3.5389169275765120e-01 -1.9811950231781611e-01 0.0000000000000000e+00  3.7141713797076881e-01 -5.5311307855585717e-02 0.0000000000000000e+00  3.5869509494680191e-01 9.1426314825373986e-02 0.0000000000000000e+00  3.1369962895719694e-01 2.2168800197617736e-01 0.0000000000000000e+00  2.2770420408737002e-01 3.1588673866736966e-01 0.0000000000000000e+00  -2.1938125002733972e-02 2.4043574418512284e-01 0.0000000000000000e+00  -7.8428993790674181e-02 2.2470247950537625e-01 0.0000000000000000e+00  -1.3173618419884608e-01 2.0143476447400047e-01 0.0000000000000000e+00  -1.7546124313129063e-01 1.6851746454287578e-01 0.0000000000000000e+00  -2.1792709865997587e-01 1.2337075239113349e-01 0.0000000000000000e+00  -2.4551660132090000e-01 6.6799140310164734e-02 0.0000000000000000e+00  -2.5602143020295087e-01 5.8063400751561800e-03 0.0000000000000000e+00  -2.4874485184739262e-01 -5.4483565149979089e-02 0.0000000000000000e+00  -2.2622301366147143e-01 -1.1552425157049280e-01 0.0000000000000000e+00  -1.9470167374952327e-01 -1.6875434847056101e-01 0.0000000000000000e+00  -1.5657840215478599e-01 -2.1360880703403373e-01 0.0000000000000000e+00  -1.0819715195234085e-01 -2.5232577171456982e-01 0.0000000000000000e+00  -5.5761839587104123e-02 -2.8416376072778293e-01 0.0000000000000000e+00  1.3775248783855091e-03 -2.9837363902049496e-01 0.0000000000000000e+00  6.7215528851869877e-02 -2.9901744820915632e-01 0.0000000000000000e+00  1.3027763422548660e-01 -2.7687347883587293e-01 0.0000000000000000e+00  1.8056346875181009e-01 -2.3022043475078671e-01 0.0000000000000000e+00  2.0940960721184274e-01 -1.7014881279813479e-01 0.0000000000000000e+00  2.1684452253664929e-01 -1.0541517836101398e-01 0.0000000000000000e+00  2.0907214947418340e-01 -4.9481341874908651e-02 0.0000000000000000e+00  2.0452195770100176e-01 -1.7372363103126728e-03 0.0000000000000000e+00  2.0573139562249629e-01 5.0928635902333208e-02 0.0000000000000000e+00  1.9839199111863687e-01 1.1866360764244918e-01 0.0000000000000000e+00  1.6972754099609652e-01 1.8641056918974308e-01 0.0000000000000000e+00  1.0990468715586554e-01 2.3424591808716294e-01 0.0000000000000000e+00  -1.6561286057837854e-01 -3.8038121422413335e-01 -7.2160529924292754e-02  -1.8978592501003352e-01 -3.7141281408575477e-01 -2.0312049854234505e-02  -2.4712723844619547e-01 -3.1639668234387325e-01 -3.6325670033212985e-02  -9.1079756474908236e-02 -4.2582352624565517e-01 -2.9510619220118130e-02  -3.3247202830487788e-01 1.9789909447495876e-01 -4.6615117880451112e-02  -2.6642197718508004e-01 2.8289639737847810e-01 -3.8386660491422767e-02  3.5615979650386126e-01 -9.5055047608986823e-02 -1.2217263064464185e-02  3.5390073005259826e-01 2.6326550748142628e-02 -1.2875796616525744e-02  -3.7267709290525847e-01 1.1070843871743558e-01 -3.3541404086897555e-02  3.2871661650694234e-01 1.5228037864604069e-01 -1.6100096784706787e-02  -2.8548293824100240e-01 2.5064725658088793e-01 -7.5912291843560825e-02  -2.9100646223072468e-01 2.0500513306797744e-01 -9.9329955172459947e-02  -3.4827894722914732e-01 1.1224214768900455e-01 -8.1522614888646622e-02  -3.3687420592193512e-01 3.8357295968354702e-02 -1.3520223724012945e-01  2.7924708610014870e-01 2.4748233998238020e-01 -3.7433405270532939e-02  2.9100467335547203e-01 2.0024452884566873e-01 -6.6720497889355482e-02  2.2592038381234236e-01 -3.2981611911116360e-01 -1.4204714327343487e-01  2.6424423343227238e-01 -3.1181209256293480e-01 -9.5794796145432307e-02  2.0253261614988982e-01 -3.7600397816680897e-01 -8.5925277302043523e-02  2.3189612474031304e-01 2.9819277649445408e-01 -8.1652969875147030e-02  2.5762939093817905e-01 -3.4805005037502562e-01 -4.6130664963668348e-02  1.6584344722812175e-01 -3.5770780630152277e-01 -1.8539258555674173e-01  2.5027828175065925e-01 -2.8379797636095572e-01 -1.8874381495620238e-01  1.9003393765048124e-01 -3.0891137097772225e-01 -2.4081154330857635e-01  -3.7263637127771859e-01 -1.0101964089076743e-01 -2.7277670799245268e-02  -3.1472985185441577e-01 -2.2838461902209456e-01 -2.7948837737218402e-02  2.7199862700480659e-01 -3.4835414686244887e-01 -1.1977738035267986e-02  3.3040992108931760e-01 -2.2765448834308480e-01 -2.2206974729041533e-02  -3.7597464624838062e-01 4.8999209329215988e-03 -5.9235621653110977e-02  -3.6233816349662301e-01 -2.7476785647217294e-02 -1.0609294249985077e-01  -3.5994173772205584e-01 -1.0587309426492916e-01 -8.2402663176416993e-02  -3.9021952026048473e-01 1.5301115871457915e-02 -1.9776923286631960e-02  -3.3900919358299797e-01 -1.6772013637846550e-01 -1.3766082263890439e-01  3.0948182655924439e-01 -2.3634899924862132e-01 -7.7549239564682931e-02  3.3389326425148330e-01 -1.1689671078768155e-01 -6.6642320117421092e-02  3.3263791495497103e-01 1.4393310383784767e-02 -6.6229821428085006e-02  2.0877396756220687e-01 3.2489728884550517e-01 -5.1272389302813783e-02  2.6039948978709171e-01 2.8046411899267404e-01 -1.8586237064821862e-02  2.6620292299345349e-01 2.3917923457122214e-01 -1.0417703062793272e-01  2.5785736242904633e-01 2.5209463664731802e-01 -1.3673816917881335e-01  2.0200293192960803e-01 3.3032694159546477e-01 -1.1566149571058845e-01  3.2648358279185441e-01 -1.4295508329554035e-01 -1.1745272200923407e-01  1.8873711800485565e-01 3.4657521271003111e-01 -1.4188510935861587e-01  3.2373015081011192e-01 -1.0415807818424487e-02 -1.2541763349989049e-01  3.0586063741392788e-01 1.3044886311848605e-01 -1.0468159077715762e-01  -4.6965984820265573e-02 -4.3134723265442404e-01 -7.3768540744241703e-02  1.2115894755169963e-01 3.7388841501638326e-01 -9.5614569446204264e-02  -3.3165925801284951e-01 -1.8856837461071535e-01 -6.0866850337705836e-02  9.8088455643034894e-02 3.9851634181041168e-01 -1.2430287785351307e-01  -2.0914230510691306e-01 3.2781057349798720e-01 -7.9091499098568149e-02  3.2431980957407669e-01 -1.0244387878176685e-01 -1.6775009484481548e-01  -2.1908577548065147e-02 4.0500684520423158e-01 -1.0954442142637150e-01  -6.9892004116374274e-03 4.1798162212184253e-01 -1.2504652248177253e-01  9.5591827536852428e-02 4.1037300173268770e-01 -1.4592262034880651e-01  -1.0831312790461534e-01 3.7309554445227783e-01 -7.8942250619352422e-02  2.4539674210935638e-02 3.7985607764375451e-01 -6.8488318091196904e-02  1.2814926112146968e-01 -4.0004170609654327e-01 -1.2131119234034306e-01  -8.9952460671962882e-04 -4.2350533071060487e-01 -1.2156931511104603e-01  4.7479716074161411e-02 -4.0555227468725308e-01 -1.6900095956932765e-01  5.5859525983097846e-02 -4.3642028108481457e-01 -7.7805878307351764e-02  -8.4512939048054320e-02 -3.8761604811634143e-01 -2.3074054421932907e-01  -1.6289593113665896e-01 -3.6888173501974159e-01 -2.2313311292592222e-01  -1.3197090768285430e-01 -3.5844840252022880e-01 -2.8804571939793944e-01  1.8215318597855409e-01 -4.1829147577552300e-01 -2.1635576663379175e-02  4.7385031150124442e-02 -4.5310550198899735e-01 -2.8768741230873047e-02  1.5259466039079445e-01 -4.1741559771174019e-01 -5.9441895146351481e-02  2.9785045536824034e-01 1.3538043734585414e-01 -1.5027977313281765e-01  -2.3110647245730581e-01 -3.1540300654633402e-01 -2.6059246629143507e-01  -2.6372261003624220e-01 -2.9200457530489837e-01 -8.8258375143895049e-02  -3.1873072090967758e-01 -2.1647269950172673e-01 -1.0888100226128379e-01  3.2039367414053771e-01 1.1145140934425804e-01 -5.5318247089776902e-02  -3.4928527071076820e-01 -1.0169671902230641e-01 -1.5794619633878729e-01  2.9853600760986099e-01 -2.2992870493961498e-01 -1.4691451031606381e-01  3.0875700922679694e-01 4.5628597887204858e-02 -1.7916033513608162e-01  -1.8874184821512308e-01 -3.6971602763372724e-01 -1.3026805850067166e-01  -2.7547049672120588e-01 -2.9072144501093783e-01 -1.4922447169715780e-01  2.7002700901355797e-01 2.1107987966470965e-01 -1.7275069951199290e-01  -7.4751154348800652e-03 -3.7817082097086757e-01 -2.5733700414537763e-01  -6.5185935483157726e-03 -3.9802004666722590e-01 -2.1107059686999846e-01  9.0140979931944920e-02 -3.7615507017383953e-01 -2.1980714749598723e-01  1.3157435448708407e-01 3.5789013392541863e-01 -4.2777374547678160e-02  -2.1444684350351528e-02 -3.5436792429927849e-01 -3.0715125580469638e-01  1.1064192953465488e-01 -2.6367739301097626e-01 -3.5217967526455218e-01  7.2169621982901541e-02 -3.1292315108034841e-01 -3.2468126841015810e-01  -2.2053334235287155e-02 -3.1753244720138302e-01 -3.6069312632753020e-01  -2.3573850499083771e-01 -3.2569672351820100e-01 -2.0471321816638377e-01  -3.0330400445205802e-01 -2.3637215944988418e-01 -2.1097686735109972e-01  -2.6324368742851229e-01 -3.7867825115971226e-02 -3.4039579934125885e-01  -2.4182469311891130e-01 8.6315174224651084e-02 -2.9917211002236188e-01  -2.1721005162188972e-01 5.0810480528858601e-02 -3.4643086275920443e-01  -2.1091902008412464e-01 -3.1549131528756430e-01 -3.2293686002568506e-01  1.4900853010674101e-01 3.4450968978384455e-01 -2.2822790905192264e-01  2.1780643905972014e-01 2.9762675883667788e-01 -1.9248873413690484e-01  2.2569608835709867e-01 2.3616853802689491e-01 -2.3732713935987024e-01  3.0612564358018124e-01 -1.7381257897886804e-01 -2.0057902140004513e-01  -2.6721766075019443e-02 3.6831065594237017e-01 -3.8129269920498539e-02  -3.2538259898996148e-02 4.0309488705379398e-01 -1.6466000830561636e-01  -1.1030490530438927e-01 3.7711354888001009e-01 -1.2570660691880764e-01  -2.0829345384452566e-01 3.1610547712608095e-01 -9.9282184441437923e-02  -2.8027076799774003e-01 1.9465229269594968e-02 -2.8909922493525297e-01  2.6809813993407394e-01 6.2372303381223468e-03 -2.8995431953986139e-01  2.5614203151296194e-01 -1.0934180247680915e-01 -3.0898875731757713e-01  2.3487411744475037e-01 -6.4437846336618768e-02 -3.3385506064662440e-01  2.3559895336064465e-01 2.8837369315368222e-01 -1.5278093055877864e-01  2.0188488503425225e-01 3.3446953908580079e-01 -1.6290965618294384e-01  2.6737457048203794e-01 -2.3359976951981759e-01 -2.2949763153894667e-01  2.7465820864449292e-01 1.0354507408672627e-01 -2.4465647844685498e-01  2.6559522152741316e-01 1.9005853161551481e-01 -2.0747670763734802e-01  2.9776491786326309e-01 7.9757858936458814e-02 -2.0941138380381549e-01  -2.9981947259924657e-01 1.2306211324609928e-01 -1.5097731540007042e-01  -2.4925484404614007e-01 2.2683030606983035e-01 -1.4144116825832917e-01  -3.3824418033357340e-01 -1.0534751629554824e-01 -2.0643037990688487e-01  -3.1759601973574253e-01 2.1576038690862696e-02 -1.9658875579305340e-01  -9.5479450872795010e-02 -4.0496405887860543e-01 -1.6641715293756246e-01  -1.1855363773578398e-01 3.5604754653797355e-01 -3.4011143721749154e-02  -1.9198620903334110e-01 3.3390944936368777e-01 -5.0312529414263250e-02  -1.9372578864262782e-01 -3.6237202953984493e-01 -1.6907292479507077e-01  -1.0128161246689357e-01 3.9275598122096733e-01 -1.0997539784562221e-01  -1.1872939806805659e-01 -3.4368159539289639e-01 -3.3451056199395152e-01  -1.0317984104425897e-01 -4.1023081118518251e-01 -1.1409896797313725e-01  -1.6278982584856153e-01 -3.0917016669907266e-01 -3.6548918097511035e-01  2.9876772542128921e-01 -1.3184528973062162e-01 -2.4292599941967230e-01  3.1694324890708653e-01 -4.9390285698087920e-02 -2.1127543153845693e-01  2.9465479892091451e-01 -3.2550664681315657e-02 -2.5681741225185645e-01  2.6062343685935907e-01 -1.6723979692312393e-01 -2.8229567445118037e-01  -3.0548629821093898e-01 -2.1094370541896829e-01 -2.7558317212615752e-01  -2.7430694515631232e-01 1.1927722668277912e-01 -2.0912295419917387e-01  -1.2045260901624780e-01 3.4236896629051544e-01 -2.1741101590791834e-01  -1.2368608904905494e-01 3.4327060683818422e-01 -1.7153112980304516e-01  -1.3708582412062839e-01 3.7613164923963038e-01 -9.9628203292165013e-02  -2.0991599649624945e-01 2.4143893222305898e-01 -2.0080214285152459e-01  -1.1935483204770275e-01 3.1158397295098833e-01 -2.7636204327953889e-01  -1.8319436727459873e-01 2.5198755157284808e-01 -2.5011838610353376e-01  -2.0250858270226402e-01 1.7953919956951409e-01 -2.9252575698504141e-01  -7.3448713073416064e-02 -2.9016231649305269e-01 -3.9290742496765835e-01  1.9268632153224757e-02 -2.7603183109461182e-01 -3.8788718147206425e-01  -2.7877580309277544e-02 -2.3517461901503020e-01 -4.1793631192242259e-01  9.2559261547926250e-02 -3.4675326252071931e-01 -2.6827863360227461e-01  1.6765431845413639e-01 -2.7408847836035227e-01 -2.9869794749025230e-01  -1.8519550465939419e-01 3.0763068194592302e-01 -1.3888971213703696e-01  2.4702713252008479e-01 -2.2562085741880533e-01 -2.6338975350595922e-01  -5.3914145643074805e-02 3.2542788969364977e-01 -3.0936934553809992e-01  6.4688896926900899e-02 3.6259505966788680e-01 -2.7035992425505062e-01  -2.9261269124090409e-03 3.0344929721195235e-01 -3.3843576309362683e-01  -3.2357248284412798e-01 -9.6813774841744318e-02 -2.6058016046609400e-01  -2.9756450389449524e-01 -1.3863150470980179e-01 -3.2586379287966871e-01  -2.3250375492106116e-02 3.7757650362146999e-01 -2.5981800190712129e-01  1.6343431012505175e-01 2.3656081383799549e-01 -3.0798785538197043e-01  1.6493797943262414e-01 2.8637011105443344e-01 -2.7000824676178048e-01  2.2096741911542622e-01 1.9264478286925915e-01 -2.7628427270808581e-01  -2.6154104299140418e-01 -2.5084864919619304e-01 -3.4002001042683005e-01  -1.4686786393032977e-01 -2.5468475913770822e-01 -4.0131564772729089e-01  -2.0216346186155287e-01 -1.8211063726375448e-01 -3.9880082621662444e-01  -1.3379565666702953e-01 -1.7920369944424447e-01 -4.2354882304151409e-01  -2.3658488577547335e-01 -2.2946997457420210e-01 -3.7101038453933888e-01  -1.7273127968054808e-01 5.9576192127679804e-02 -3.8271333262026830e-01  -1.7199500374518267e-01 1.7775044035825235e-01 -3.3510511947205668e-01  4.7186958001680462e-02 4.1626797797532722e-01 -1.8540885826341519e-01  5.2013557447424669e-02 4.0233039757228362e-01 -2.2340087325233479e-01  -3.7905172866795504e-02 3.9415103540151425e-01 -2.1961226005065695e-01  9.7050898762254922e-02 2.9018612320035653e-01 -3.1897264361552613e-01  -3.0795504916820110e-01 -1.4911197478801356e-02 -2.6054085163336099e-01  2.0899444295591563e-01 -2.0231998901238948e-01 -3.2132173196343794e-01  1.8865367592808757e-01 -1.7912739133663422e-01 -3.5103491154742616e-01  1.3834088969352581e-01 3.8666871237768535e-01 -1.8283188844446019e-01  -2.3966147176950636e-01 1.4545282411827187e-01 -2.6134739729719408e-01  -2.5705231758548952e-01 -1.3269589118326133e-01 -3.6544165264841555e-01  -2.0862508497535789e-01 -7.9638528446582132e-02 -3.9435802232356515e-01  5.2057581275264601e-02 -8.2915992242585418e-02 -4.3598696848127871e-01  4.7130820154559952e-02 -1.6762075488492847e-01 -4.2687558172502738e-01  -3.9023782452117420e-02 -1.2802304826473268e-01 -4.4137920624031807e-01  1.2233814801308755e-01 -1.1732922962538019e-01 -4.0556538937146136e-01  1.7742587313752273e-01 -1.2759325359632537e-01 -3.7230502179639785e-01  1.0134997214562748e-01 -2.1294664236354280e-01 -3.9206853207605802e-01  2.2106579148978181e-01 5.1396456413487272e-02 -3.3065113041485222e-01  1.5415444594199851e-01 1.3580848613473065e-01 -3.5410473850912194e-01  1.9125259554723792e-01 1.5840127467061030e-01 -3.1895619580247320e-01  1.1640309964175879e-01 2.1307913179588941e-01 -3.4886731990937486e-01  5.5509231129761041e-02 1.4474859475765328e-01 -3.8319367346105787e-01  1.9048488308693734e-01 -3.5563402203699399e-02 -3.6885792864177458e-01  2.6355892597510377e-02 2.3341155388118179e-01 -3.7024793360449848e-01  -1.1224839302337633e-01 1.9771216072640146e-01 -3.6421270304443409e-01  2.4673249040202849e-01 1.0158057790173411e-01 -2.8757043133930971e-01  -1.1764333050083964e-01 2.6311109789654413e-01 -3.2332571622816203e-01  -1.2680907181194512e-01 -6.5239505812961812e-02 -4.2775975713717640e-01  -1.0611307248456363e-01 6.2998538051619979e-02 -4.1676961012579922e-01  1.2281477669557661e-01 -4.1375977992973448e-02 -4.0667083374411500e-01  1.4287897260043120e-01 6.5435528832362366e-02 -3.7667578637883681e-01  7.5430253556649174e-02 3.3630757855696143e-02 -4.0293642999445889e-01  -2.1467517138633117e-02 -1.6248661885143793e-02 -4.2776980560244010e-01  -3.7349179303063126e-02 1.1925508795816732e-01 -3.9672194607953176e-01  5.5264486829560977e-03 7.2371678996553959e-02 -3.9172620832332905e-01  -6.1269756174305273e-02 1.8722962781018174e-01 -3.8146781726111645e-01  -7.5133936521902256e-02 -4.7409275049298906e-02 -4.3146606031851215e-01  -1.0834259608237731e-01 -2.3611159303260532e-01 -9.0239232675714168e-02  -1.0441034915724165e-01 -2.5080538042726463e-01 -4.5138364502891590e-02  -1.4012494372791603e-01 -2.1537198826300011e-01 -4.9909986114372563e-02  -6.9716496252241605e-02 -2.6815054041125164e-01 -6.6942912688541592e-02  1.6057972464065767e-01 2.0022762391149296e-02 -1.3308210232360349e-01  1.5537823149911698e-01 6.5123985282338370e-02 -1.3442288431489371e-01  1.6231102777517634e-01 3.5460122987627532e-02 -1.1404501530253859e-01  -4.9930000120734626e-02 2.2401354187565639e-01 -2.1022023402214715e-01  -1.5107363740290673e-02 2.4034162269101170e-01 -1.7011407035846457e-01  -4.6317486546818687e-04 2.4071000747137292e-01 -2.1488610446107997e-01  1.8578987699479882e-01 4.5679391484394059e-02 -7.5913595043205787e-02  1.7557714473076758e-01 1.0218963470498775e-01 -7.5679080859023307e-02  1.9797576222193378e-01 7.2602070064490709e-02 -4.4598411527744977e-02  9.5668442988130598e-02 8.9824017906050418e-04 -3.5005747840584517e-01  1.0802941877944595e-01 -3.1777300783536959e-02 -3.3801477553854736e-01  8.4128325653436337e-02 -3.3913826192277119e-02 -3.5544166114389614e-01  -1.9285902505230682e-01 1.0640114552444452e-01 -6.3410976995956297e-02  -3.5845916419359543e-03 2.2276759795983933e-01 -6.6968740500495366e-02  1.1897465186777759e-02 2.2886631248273839e-01 -4.4578648444494745e-02  3.3949646061496780e-02 2.2144609920756830e-01 -6.5396763817034659e-02  3.8787274332770190e-02 2.4107774315302460e-01 -1.7677733542909321e-01  6.1276526852316590e-02 2.2460789958410746e-01 -4.6491675330444814e-02  -1.7097441670187905e-01 2.9784564572937551e-02 -1.8968157589968246e-01  -1.7872905655774654e-01 1.8921419917624867e-02 -1.6037589104939984e-01  -1.6530910465979223e-01 5.2316618055040946e-02 -1.6781857021308502e-01  -2.0250817723735576e-01 7.3139451042539500e-04 -9.5280071819955126e-02  -2.1971667101242048e-01 2.3996131359537039e-02 -6.6826582570623641e-02  -1.9515563013085266e-01 5.7265627631385256e-02 -9.0662569021032050e-02  1.4993755085785010e-01 1.3171919317783068e-01 -1.1546117746054593e-01  1.2125216046273408e-01 1.8175825940736201e-01 -9.8952804241416698e-02  1.5645568175854699e-01 1.3363623404774178e-01 -9.1192931015577627e-02  9.4537330623412630e-02 -7.2714119936746716e-02 -3.3571334725442298e-01  -2.6457371196510954e-02 -2.8966835531168528e-01 -4.8817391522998514e-02  5.0491636390361062e-02 -2.6980457098421484e-01 -1.0895796620835940e-01  1.0228662109310194e-02 -2.6759889727342634e-01 -1.2292240547419289e-01  4.2996617694490306e-02 -2.5439234262045707e-01 -1.4206299814900253e-01  -1.6820150917088295e-01 5.5197134015720122e-02 -1.4148910300385378e-01  2.0560028149142966e-02 2.3962773636060183e-01 -1.36988742