<?xml version="1.0"?>
<VTKFile type="UnstructuredGrid"  version="0.1"  >
<UnstructuredGrid>
<Piece  NumberOfPoints="651" NumberOfCells="1976">
<Points>
<DataArray  type="Float64"  NumberOfComponents="3"  format="ascii">0.5789554307806862 2.001147080430415 -1.331245375141553e-15  3.061333791851459 1.081373918869423 -1.124507384150432e-15  -0.1033634899158121 2.017106132605612 -1.327573084373654e-15  -0.7553457898894865 1.787106011718784 -1.334365925519856e-15  -1.294440287480847 1.364315577576576 -1.330483697052235e-15  -1.703460744149758 0.8215906523203378 -1.104185958140214e-15  -1.953540454360063 0.1978628757448866 -8.869125106647258e-16  -2.000601680793595 -0.462552570921034 -6.630988399113908e-16  -1.736089974319954 -1.075221871779049 -4.403115565988978e-16  -1.277659616169425 -1.575453493874349 -4.369045458416957e-16  -0.6700200483074962 -1.892938241065186 -4.391833411517908e-16  0.0008997760252373865 -2.038567641846246 -4.48047674614199e-16  0.672178044802492 -1.929138642898758 -4.441471456930774e-16  1.293596874918265 -1.640880087868533 -4.392877858098137e-16  1.788634608606508 -1.171536629278515 -4.398575979356694e-16  2.122802900180203 -0.5863740341578437 -6.633854726114772e-16  2.213288297626716 0.08515534506848814 -8.86355144343881e-16  2.112195472058228 0.746130292394774 -1.100878469923091e-15  1.745065842940567 1.3171432763704 -1.332103414140662e-15  1.227771892145242 1.760483403309675 -1.327247976532885e-15  2.644026629692366 1.671299272301826 -1.324869515022646e-15  2.082301547032936 2.122310966842486 -1.339082193670155e-15  1.439009029170342 2.4308829757742 -1.556927672332443e-15  0.7653116236322284 2.627362462622766 -1.577361271811116e-15  0.07365731018080725 2.749497852759393 -1.543624962239994e-15  -0.6296538516899689 2.750266107252694 -1.541186430840763e-15  -1.315560136407588 2.571599911458961 -1.542374837696374e-15  -1.942727149126074 2.229977101419781 -1.330198360740249e-15  -2.474680164574911 1.75214103201095 -1.320257598803846e-15  -2.877510342968042 1.158147197092789 -1.335236114686126e-15  -3.128325255877531 0.4826675509900507 -1.100456281493814e-15  -3.185880590330212 -0.2314192023026642 -8.713023191646219e-16  -3.044462375506163 -0.9351465791912925 -6.461472879155874e-16  -2.738149873837932 -1.579823998442906 -4.316305593377601e-16  -2.291063592629338 -2.136749236021858 -4.262871095086812e-16  -1.731939683570515 -2.580103445473809 -2.076593281501415e-16  -1.093431670320529 -2.894012700875618 -1.946712720381044e-16  -0.4015972129162096 -3.067921039338222 -9.255664100047122e-18  0.3120758980736388 -3.073809525150682 7.671625483499627e-18  1.008019846561447 -2.909078187527046 -2.120702963761691e-16  1.649805903828296 -2.610992159212965 -2.135844627690794e-16  2.22148044012541 -2.182262351859048 -4.25279812120751e-16  2.695116773719997 -1.653678500084895 -4.405803896898626e-16  3.046815777040299 -1.029984636184325 -4.263095207491609e-16  3.247652285788715 -0.3392557567693874 -6.610668374748486e-16  3.276539001900601 0.385393025562761 -8.761293296590977e-16  2.263537338987585 0.6771819300294578 -0.8000684867075425  1.995344721876878 1.127298563648868 -0.6802553177740299  0.6266284512648023 1.688202098891327 -2.390944507520739  0.6586576178761914 1.928649252193043 -3.287165316682554  0.04375183867035633 2.02287800168564 -2.803548869459774  1.731886341841093 -0.5299887198062819 -5.785053572067266  2.050690946878982 -0.1488880028321622 -5.446619978936402  1.807508406561756 -0.6439202968604163 -5.072337302685392  2.042493015811641 0.8279060097508733 -1.360882599138427  1.256764034258379 1.660108242776428 -0.8636538266008147  0.9702135257644948 1.59589315509114 -1.524315946152882  0.6858430565648707 1.884152798610749 -0.8045288927194586  2.398657119767403 -0.1128497517249472 -0.5402485770404779  2.331112395804319 0.1427382247245929 -1.291601177800523  2.368957648523461 0.3461927989072059 -0.5221188150742884  2.347166000557835 -0.5771828808459281 -0.8329265608557835  -2.166642004334691 -0.1095011833443391 -0.4554887523531443  -2.130188953759351 0.5181335853366495 -0.7454113960156094  -2.367620461231274 -0.1124213734482473 -1.202675257275941  1.567343899329245 1.31097512741139 -1.360876935002203  -0.3111015033024584 -2.287230861286701 -1.79677669174162  -0.848944682772836 -2.132715812684651 -1.832487672571144  -0.5513437132372161 -2.181383249549407 -2.393626899586238  -1.178689331318412 -1.901643055668081 -2.324193419429041  -2.14534545149881 -0.760395110616211 -2.418082042668436  -2.443898355323134 -0.03542328470251063 -2.061680967244329  -2.321679370491584 -0.1879806432417314 -2.711954201584707  1.236569796774964 1.331821016170023 -2.104062105873201  -2.407040697668554 0.3565143230136533 -1.443932212296447  -2.183542107580165 0.981248332244643 -1.502613277864191  1.965787236282044 0.09160124329967696 -6.219182576248921  -1.110493264525247 2.083158701267203 -2.638166161736808  -0.8784263749027694 1.942085275806225 -1.995668613192165  -0.4934056492213836 2.05401656227665 -2.413339989690366  -1.486076517993109 1.799180705277595 -2.028314024913235  0.826693741613312 -2.091151385333394 -2.14835409776357  1.031468997739433 -2.061195974935063 -1.573490065348559  0.4082623576960404 -2.257783617459793 -1.76457480142881  0.5877235548231278 -2.239049844359806 -1.216166004665056  -2.262601269010689 -0.6683854825828797 -1.584105615691994  -1.984083116182741 -1.177299780126397 -1.753008403864903  -1.677494546372531 -1.535150855760391 -1.170085438982518  -1.265395018618832 -1.897947232244624 -1.526439088934215  -1.308165401317878 -1.786356907227525 -0.8098823915440818  -1.747428164084776 -1.342938319270043 -0.538827356836508  -2.028871980456182 -1.071956217025199 -1.010580517163121  0.0004258599175944247 2.204253523090818 -3.419267995541927  0.2469764292431337 2.230054089705143 -3.912531492830321  -0.4091699856100976 2.335813076044373 -3.99944547401741  2.049417807469434 -1.155987757080255 -1.217541308889708  2.102449798470857 -1.062233667234541 -0.5052270430203397  -2.03757790432372 -0.8034781776493789 -0.434257240034542  -2.238596591770718 -0.5410524496436177 -0.8639777698043407  0.07668039480329431 2.307702755083087 -4.576452651971533  -0.7471563893060803 -2.128452860396598 -1.19637741261282  -0.9257408995747803 -1.937914503114959 -0.5172217478726655  1.741402811314402 1.456426073471824 -5.298766460463833  1.323237168250158 1.855533942667547 -4.800667913254302  1.822676296132725 1.416265930384961 -4.551090740322731  1.268018318400014 -1.857525173349156 -0.5441723178605308  0.9354046538710871 -2.079233904462408 -0.8396861037928426  1.668392082532707 -1.320981211360137 -3.092356666880794  2.024578917827843 -0.7334027278390607 -2.626061624143828  1.708246778812593 -1.373325470151428 -2.32168257118191  0.06165968487334032 1.901542397527549 -0.8937812055634692  0.382293364228812 1.77020247306407 -1.571377004097334  -0.4753511931621421 2.291420973313113 -4.749856078795277  -1.078069191352841 2.20760322471074 -4.296685090822334  1.148146563931819 1.798558206854904 -5.652829779270243  0.4186649892483534 -1.688528643246184 -4.153889971315325  0.8840070840408054 -1.667117182243997 -3.91330955037036  0.4533468054586798 -1.879583685839272 -3.643443670446407  2.025645221696108 -0.9607874059947777 -1.916677525622367  0.9745588635118343 -1.817818793674527 -3.276720602643119  -1.705248035880151 -1.11374136316615 -3.141527457275982  -1.712360022182179 -1.415198569723957 -2.399760277856787  1.754685578424005 -1.51524769590793 -0.6206414867125832  1.526668329575374 -1.770272587080472 -1.266541837667862  0.733227956130605 2.125210997342846 -4.2746430967825  0.6297053942126178 2.084535353091774 -5.117398472538301  2.169714973884398 -0.304912898145104 -1.949076344370773  2.262496229547883 -0.580424400878616 -1.437051715553361  -1.1243301280435 -1.482667154338523 -3.580027022815748  -1.349575609460012 -1.616100849799425 -2.898120762302751  -0.5934358647038529 2.242041898154796 -3.217462448913783  -1.322050220796474 2.095910063476162 -3.385338304402053  1.986314745287082 0.4778452095233078 -2.60267130566473  1.717882717465476 0.9139857077399671 -2.0702840671966  2.071850088171889 0.3857956432295237 -1.976436275745358  -0.4232271587389324 -2.128409334511658 -0.5905281555326124  1.300713790600987 1.810849489720043 -4.02367378125253  -1.651956983982463 1.862324539395424 -4.010771714561507  -1.844451155187226 1.746363915434768 -3.315440440027218  -2.349451143879262 1.077365274705913 -2.277901302745876  -2.382804054826113 0.9778443611447817 -2.991773142538635  -2.462698804259986 0.417214154615006 -2.692144833185219  -1.700947555147182 1.867589262888812 -2.641530166390063  -1.617525227666736 -1.609894639651938 -1.830594693526769  2.17556360088234 0.2316433759483087 -5.022267365106976  2.132554704273187 0.5030722587761629 -5.628760405010029  2.077087149543374 -0.3082794874585851 -4.580048314493853  2.150355316462105 -0.06196471191795244 -3.05407666359168  2.039724385288538 -0.6703606524536161 -3.380485869167653  2.106657480250135 0.5233456874526515 -3.262960749552124  1.326706279481062 -0.99337484606101 -5.261534727278709  0.7984321955868844 -1.203606323066874 -5.139405635328536  0.7656977709787719 -1.008282745160616 -5.753971190052448  1.013539111886482 -1.399836175512325 -4.50395375599052  1.361874807995373 -1.437754945985611 -3.81648204115805  1.757597941185843 -1.100932977746645 -3.679657806534618  -2.034266492761151 0.3026321475891321 -4.134088957961946  -1.827904386392925 -0.2154592082134996 -4.118255340591455  -2.092252333851013 -0.0881196215811649 -3.612234571091884  0.4871403823232158 1.921448302928388 -5.779030744163175  -0.1132547609458673 2.065336909777309 -5.39225425566471  -0.3314115638525496 1.845460074265694 -1.569028451065125  -0.6555630318305682 -1.947537479149368 -3.109441524192867  -1.785749827372121 -0.6293600134832507 -3.734390165467302  -2.284122963323548 0.5281537454327392 -3.498617908641537  1.350968008491064 -1.801189108908249 -1.983041799334818  1.78152746432752 -1.409875860054203 -1.793079740502758  -2.00
[...]
<PointData  Vectors="f_5885640-0"> 
<DataArray  type="Float64"  Name="f_5885640-0"  NumberOfComponents="3" format="ascii">1.3451279807578492e-01 4.1516790094112088e-01 0.0000000000000000e+00  1.7638303323229421e-01 3.0436969500629459e-02 0.0000000000000000e+00  2.1892942602148417e-02 4.3490110072985388e-01 0.0000000000000000e+00  -8.1735851240018031e-02 4.0382762992616950e-01 0.0000000000000000e+00  -1.7764916656524798e-01 3.2800913366583812e-01 0.0000000000000000e+00  -2.5203274847537033e-01 2.1982269930968840e-01 0.0000000000000000e+00  -3.0857245317249316e-01 8.6517017139542782e-02 0.0000000000000000e+00  -3.3988658302018543e-01 -6.2234345706259943e-02 0.0000000000000000e+00  -3.3810941926401655e-01 -2.2036191186172094e-01 0.0000000000000000e+00  -2.9047557189145035e-01 -3.5384507689007655e-01 0.0000000000000000e+00  -2.0250309791565121e-01 -4.4466182281666661e-01 0.0000000000000000e+00  -8.7495977331373959e-02 -4.8130355425387900e-01 0.0000000000000000e+00  3.7527100282787149e-02 -4.7293214858066818e-01 0.0000000000000000e+00  1.4446178407254975e-01 -4.1564711111618952e-01 0.0000000000000000e+00  2.3041213076036657e-01 -3.2122204879321964e-01 0.0000000000000000e+00  2.8698604161142771e-01 -1.9547440080343614e-01 0.0000000000000000e+00  3.0989830513095096e-01 -5.7885786149421803e-02 0.0000000000000000e+00  3.0747729944168661e-01 8.7871830792871516e-02 0.0000000000000000e+00  2.8242950564932617e-01 2.2474145761500064e-01 0.0000000000000000e+00  2.2008322984807588e-01 3.4035799591727828e-01 0.0000000000000000e+00  1.8791953808196521e-01 9.7151873841307301e-02 0.0000000000000000e+00  1.8776206252739733e-01 1.7725010264457736e-01 0.0000000000000000e+00  1.5945493868091115e-01 2.6117402804764450e-01 0.0000000000000000e+00  9.1309635564448488e-02 3.2105464634576114e-01 0.0000000000000000e+00  8.0650455503275126e-03 3.2660171143980554e-01 0.0000000000000000e+00  -6.6117065637488939e-02 2.9010205764069935e-01 0.0000000000000000e+00  -1.1751298280527525e-01 2.3242148362097631e-01 0.0000000000000000e+00  -1.4239378005209616e-01 1.6677112890131138e-01 0.0000000000000000e+00  -1.5481593238685626e-01 1.0271226939950247e-01 0.0000000000000000e+00  -1.5753198013997480e-01 4.9189975396274822e-02 0.0000000000000000e+00  -1.6042491461412811e-01 1.0064269557438906e-02 0.0000000000000000e+00  -1.7406812401421429e-01 -3.2309027401885050e-02 0.0000000000000000e+00  -1.8985703486377659e-01 -8.1029222645636556e-02 0.0000000000000000e+00  -1.9835626981390539e-01 -1.4263174171285417e-01 0.0000000000000000e+00  -1.9250017880192133e-01 -2.0664816238093436e-01 0.0000000000000000e+00  -1.6503182172868922e-01 -2.6508566801211925e-01 0.0000000000000000e+00  -1.1664198119125978e-01 -3.0613819808066978e-01 0.0000000000000000e+00  -6.1017731828393505e-02 -3.2400204587080395e-01 0.0000000000000000e+00  -6.5315507558809686e-03 -3.2274971330388386e-01 0.0000000000000000e+00  4.5883711979618422e-02 -3.0851199288994557e-01 0.0000000000000000e+00  1.0157574548761830e-01 -2.7136681503403154e-01 0.0000000000000000e+00  1.3451465178448205e-01 -2.2465401404343449e-01 0.0000000000000000e+00  1.5919006984263007e-01 -1.6285810401616521e-01 0.0000000000000000e+00  1.6507422891175111e-01 -1.0524664902608619e-01 0.0000000000000000e+00  1.6242698301334654e-01 -5.2838659826279111e-02 0.0000000000000000e+00  1.6217785706004331e-01 -1.0684565942983670e-02 0.0000000000000000e+00  2.8844375984225629e-01 9.5957729537072572e-02 -4.2762651448662106e-02  2.7550949675615782e-01 1.9250182923441209e-01 -3.7697826125932546e-02  1.7701681877855285e-01 4.2526991645153062e-01 -7.9116070617190171e-02  1.7163045393575579e-01 4.1897243519074351e-01 -1.0885202988948839e-01  9.6690281003707579e-02 4.3347388232116213e-01 -8.6591276266037451e-02  1.8845933704004023e-01 -9.8637195910127040e-02 -2.9378571354202926e-01  2.3405742554691913e-01 -3.0022679531697218e-02 -2.5929281874986748e-01  2.0969859938044658e-01 -1.2127804607643908e-01 -2.6023200003113045e-01  2.8280022953056172e-01 1.6485435714795904e-01 -8.1114753424090899e-02  2.1004754257194733e-01 3.5412448904078891e-01 -5.2676749769331531e-02  1.9367415469395780e-01 3.9230340551722498e-01 -7.8098910392316215e-02  1.3488262035811618e-01 4.1629250295702330e-01 -4.5185581751884071e-02  2.9318716137085793e-01 -6.3517350838822692e-02 -2.1748848970732662e-02  2.9313581602680244e-01 1.4546422420523172e-02 -7.6642819795710637e-02  2.9519189832291953e-01 1.9334946580602801e-02 -2.1855707155405028e-02  2.7960375598931325e-01 -1.3464113665571834e-01 -4.1063466133451375e-02  -3.2762174200062949e-01 -9.8257008629822670e-03 1.3777097881846900e-03  -2.8784561807582221e-01 1.0348515131827646e-01 -7.9499287205338168e-03  -3.2283274775254356e-01 -4.8004651450134751e-02 -4.5454209231881870e-02  2.5274367503657791e-01 2.9362198007863022e-01 -8.1904009077289633e-02  -9.2031603943885404e-02 -4.2768179410460294e-01 -1.1464627118985907e-01  -1.7549678170683097e-01 -4.1025577546959968e-01 -1.1903350634608453e-01  -1.2696407983934765e-01 -4.0729013374982581e-01 -1.6944851932932226e-01  -2.2577022283394632e-01 -3.8201053756832770e-01 -1.6697458354923483e-01  -3.4649776310313884e-01 -2.2237520437369052e-01 -1.6975228518692073e-01  -3.2976704581922428e-01 -8.2923893625228312e-02 -1.1585823588600258e-01  -3.4559535956425097e-01 -1.4260148960886160e-01 -1.8217980640988832e-01  2.4335150288798812e-01 3.4724269437340682e-01 -9.1281796518517810e-02  -2.9722470666227296e-01 2.4921296108832706e-02 -5.4675503981619827e-02  -2.5100919731143490e-01 1.4104491189764073e-01 -4.3123343514919990e-02  2.0462063449932846e-01 1.3260807636697266e-02 -2.9488690893786906e-01  -7.6549446325868048e-02 3.3963655741201809e-01 -9.4337423913482099e-02  -5.2229298568740243e-02 3.8083607182821061e-01 -5.2413062932211381e-02  1.4053334072594972e-02 4.1109955681962440e-01 -7.1371650852807833e-02  -1.3419694351690087e-01 2.9847488566256125e-01 -5.8671687200414567e-02  9.1148280921441713e-02 -3.8147912640348625e-01 -1.3998093730675149e-01  1.1523750828072238e-01 -3.8728280021836237e-01 -9.6353536384507471e-02  2.0425401577451364e-02 -4.2076067826377761e-01 -1.1186591447998466e-01  4.0084131620805999e-02 -4.3107202770066028e-01 -6.7314178232595598e-02  -3.3976279522397390e-01 -1.6850408633810743e-01 -8.7887485491695602e-02  -3.2756528523915568e-01 -2.6470668999225527e-01 -1.1087492183695320e-01  -2.9629634067607685e-01 -3.2093183639179507e-01 -6.0859463024096734e-02  -2.3960297472086245e-01 -3.8318322522409815e-01 -9.1827683278960334e-02  -2.5788557095673414e-01 -3.7795028457180807e-01 -3.2620081170646811e-02  -3.1548673433236502e-01 -2.8088508455683575e-01 -1.3512802121087266e-02  -3.2836616043149486e-01 -2.2573496143000368e-01 -4.4587699694352737e-02  7.3915049323128507e-02 4.1439197611095380e-01 -1.2412352002611977e-01  9.0182027943482582e-02 4.0344166916391050e-01 -1.5948566664845459e-01  -8.7000945515530725e-03 3.5673635710171409e-01 -1.7745999879089022e-01  2.5294877583450176e-01 -2.3012712133165250e-01 -6.8844510427083574e-02  2.5809308468557857e-01 -2.4200494292871144e-01 -1.6707621085735966e-02  -3.3835631799967314e-01 -1.6035988470146573e-01 -3.7892364895865545e-03  -3.3268456462601814e-01 -1.1540160723146679e-01 -2.8412354655622470e-02  3.6147475319967447e-02 3.5996100198588354e-01 -2.2046396001717097e-01  -1.6934980651446210e-01 -4.3150343622569576e-01 -6.2021757691438285e-02  -2.1436543476400446e-01 -4.2541364099305196e-01 -1.3738481645075207e-02  2.2193231799975832e-01 2.4973342935332307e-01 -2.4188792331170059e-01  1.9200830831578716e-01 3.2989725295802313e-01 -2.1778707126829838e-01  2.5647900273926616e-01 2.5068796338118382e-01 -1.9509424038842257e-01  1.4474311365096343e-01 -4.0452030859672033e-01 -1.6308954018530789e-02  9.2013418225922419e-02 -4.2511668723317925e-01 -3.6791196516670517e-02  2.1332401826318412e-01 -2.2235610356885002e-01 -1.7781535035535867e-01  2.7257798839259528e-01 -1.1437353550063406e-01 -1.3880671391895377e-01  2.2803907177239283e-01 -2.4411373436223305e-01 -1.3922865761786540e-01  4.1649625595461565e-02 4.4156193899030305e-01 -3.8484694444777659e-02  1.1502916946688406e-01 4.3790816602446991e-01 -6.2039535823959817e-02  -4.9059328504952857e-02 2.9896787323006063e-01 -2.4317896278822176e-01  -1.1052574125529059e-01 2.5468486341249924e-01 -2.1467082002305260e-01  1.3172151239996996e-01 3.0897825040065457e-01 -2.7670419436823857e-01  1.7123754674277875e-02 -3.3322913471519894e-01 -2.9184129769125233e-01  9.1667257663721496e-02 -3.0399214155217003e-01 -2.5824087278979763e-01  3.0287387660389492e-02 -3.4844130137896429e-01 -2.5544316880094159e-01  2.6739030592835678e-01 -1.7094053047152322e-01 -1.1366511779278872e-01  1.1339942368164677e-01 -3.1890166649620649e-01 -2.1442509137599655e-01  -3.1604187593678773e-01 -3.0285173641825591e-01 -2.4580037449374642e-01  -3.0562487749622236e-01 -3.1953140825034643e-01 -1.7577570861521791e-01  2.1248326777111518e-01 -3.2555955086641786e-01 -2.3138347504997270e-02  1.8196852163433630e-01 -3.3985675264881515e-01 -7.1978919318796741e-02  1.4109075373181074e-01 3.8847603055099333e-01 -1.8325219010539626e-01  8.8245865637881588e-02 3.5423293356803337e-01 -2.5327108843652718e-01  2.9487019525618713e-01 -4.4017293851513997e-02 -1.1174707521489745e-01  2.8238782726751754e-01 -1.1227985312717231e-01 -8.4250800413171234e-02  -2.3326748580403286e-01 -3.5768922576785739e-01 -2.8507577809775742e-01  -2.5701278887232354e-01 -3.5815660100705099e-01 -2.2284010069934379e-01  -9.8384715208149395e-03 3.7729547473729563e-01 -1.2157202497488043e-01  -1.1829903273177438e-01 2.7706421452527058e-01 -1.5159562854323524e-01  3.0003404724175742e-01 1.2641964905725245e-01 -1.1544667485389043e-01  2.8450486440976375e-01 2.3315199630261121e-01 -1.0200979665342974e-01  2.9786674402272417e-01 9.8605217351191654e-02 -1.0780016680591550e-01  -1.3225456062518517e-01 -4.6123796987346638e-01 -1.9047461924988029e-02  2.2150545141099595e-01 3.5023921097949828e-01 -1.5815925779348383e-01  -1.7811736881094312e-01 1.7496780395530265e-01 -2.0824951615585499e-01  -1.8661617314835804e-01 1.8320878048258307e-01 -1.6575169500524722e-01  -2.4750254507149930e-01 9.7060266751801780e-02 -1.0531321399656964e-01  -2.6574409462598914e-01 4.0581978364536309e-02 -1.6883735398144592e-01  -3.1098283957031764e-01 -3.9149810792129404e-02 -1.6108949084218838e-01  -1.5315183998724793e-01 2.4613823047973499e-01 -1.1005607487900405e-01  -2.8682826418804847e-01 -3.3638854086473435e-01 -1.2017468779589482e-01  2.6591022398786573e-01 3.3609352708639413e-02 -2.2873545171353965e-01  2.4321026567006765e-01 7.8098312456268054e-02 -2.5674025392906874e-01  2.5497771387307894e-01 -5.6275068311438151e-02 -2.2043507945014193e-01  2.9125726947150776e-01 9.2520152980272215e-03 -1.3755284954729088e-01  2.6135004714007815e-01 -1.0333274081439510e-01 -1.6926817935129371e-01  2.9595971631756712e-01 1.1351127546066500e-01 -1.3334114606895195e-01  1.4262945678583497e-01 -1.9933111248521432e-01 -2.9636889610522804e-01  6.4793869999223402e-02 -2.6792421497342489e-01 -3.2096517316975554e-01  6.0278012523823053e-02 -2.3160059329886473e-01 -3.4347587944051811e-01  1.0374497226476423e-01 -2.6958095466260235e-01 -2.8418563514406353e-01  1.6060151932646546e-01 -2.5106338549505930e-01 -2.3163574521852218e-01  2.1701185925192099e-01 -1.8260355009773119e-01 -2.0387883614253713e-01  -3.1467644867130073e-01 -1.1245877388307833e-01 -2.9151084753167283e-01  -3.2663757868554427e-01 -2.0216296384598317e-01 -3.1522027130895036e-01  -3.3923300277084073e-01 -1.6484124005676590e-01 -2.6430924740172745e-01  3.5460049886069669e-02 3.0786528823217207e-01 -2.9819309773223018e-01  -2.8753604189028389e-02 2.9639577067308492e-01 -2.8729483956809776e-01  1.1837892174116875e-02 4.3093999576823011e-01 -4.3288985993394861e-02  -1.4797473275787573e-01 -3.9087735567110127e-01 -2.3643331994537831e-01  -3.2840995412397000e-01 -2.5416692845600192e-01 -2.9332718515732081e-01  -3.0926725132666083e-01 -5.4420386139131235e-02 -2.2739461283323661e-01  1.7045798937654857e-01 -3.3110220909102750e-01 -1.2542304554859274e-01  2.2976364010236286e-01 -2.6082803581288688e-01 -1.1000158652550780e-01  -1.9829245769676562e-01 1.9896976478108075e-01 -7.5350680162692710e-02  -1.8530893218640807e-01 2.6095935408567555e-01 -2.6866322680765810e-02  2.8314609183310002e-01 2.4003498994175443e-01 -1.2587986616572250e-01  2.8802585550325621e-01 1.4361109376661585e-01 -1.6981809495303560e-01  -3.8865313808402621e-02 2.3762687038023106e-01 -3.2768135915106450e-01  -2.1174850637872894e-01 5.3092486868257988e-02 -3.2030579683332727e-01  -2.5657860323835130e-01 -7.2742568518074757e-02 -3.6183445736442893e-01  -2.7330790297690005e-01 -4.5039865932764225e-02 -3.1555000470203426e-01  -2.1551476387745333e-01 -2.5877489494950931e-02 -3.7447052008617565e-01  5.8438835172015674e-02 -3.6960604364182220e-01 -1.8956768262143417e-01  1.6054244615275848e-01 -3.1141756635068146e-01 -1.6836781461085537e-01  2.4715451247230094e-01 2.8304901875833238e-01 -3.3436114726406299e-02  -1.3181644282836512e-02 -4.0240663068260746e-01 -1.6542067201287530e-01  6.1904758055528017e-02 -1.2174021281455755e-01 -3.8363056639799203e-01  -5.7243297146312717e-02 -1.7832382499918481e-01 -4.0290114300232027e-01  -2.2801028534943306e-02 -7.1801001081495605e-02 -4.0357376042343168e-01  4.0520142588232083e-02 -1.8522276309503577e-01 -3.7592181372041794e-01  -3.4714275630811481e-01 -2.2692336297476631e-01 -2.3752922603222251e-01  -8.8125115473625351e-02 3.7944936802720064e-01 -2.6370683965793930e-02  -2.8596646354653954e-01 2.6550304519175966e-02 -9.5895004239007195e-02  2.4564933968937505e-01 3.5467332747600244e-01 -9.6900208662537499e-02  -2.9277170886132320e-01 -2.6696286407899156e-01 -3.5281260762200767e-01  -2.8297847355897859e-01 -3.1490174673160343e-01 -3.1533601296915975e-01  2.8712445428842931e-01 2.4673958355893130e-01 -1.0474690858979330e-01  -2.0901495922724295e-01 -3.3846679598143775e-01 -3.5031112605166437e-01  -3.4069583830312555e-01 -1.2960171814457705e-01 -2.1674058094735041e-01  9.5073258787920625e-02 1.4994487960597441e-01 -3.3501322011106316e-01  1.4879274730572908e-01 5.8591930232777777e-02 -3.2591789621204148e-01  6.3073703494687439e-02 7.0298420325516586e-02 -3.3663690492002485e-01  -1.1352615108156190e-01 -2.6602975407627683e-01 -3.8875259478845109e-01  -1.8841637233968933e-01 -2.0557707089612112e-01 -4.0790454833008744e-01  -1.2172232693940505e-01 -1.0886837468257800e-01 -4.1602291111179723e-01  -5.3886117266888647e-02 4.1804573778150250e-01 -2.1655171401632395e-02  -2.1625520756361255e-01 1.3831688017765112e-01 -1.4172616114173292e-01  2.9737173551949642e-01 6.4098414062265440e-03 -1.2008740918184742e-01  -1.2987957323080135e-01 1.9999828691375893e-01 -2.9031861835217315e-01  1.9476564562736293e-01 -1.7975603515974367e-01 -2.4369047787641621e-01  -2.2851033824606873e-01 7.1179622287424998e-02 -2.5766538072726564e-01  -2.8023841856971210e-01 -1.3708629731204248e-02 -2.5504151800300923e-01  -2.4333272173687290e-01 7.7619640102695467e-02 -2.0509469709640379e-01  -7.8425849890229701e-02 -3.4663065158003531e-01 -3.3613578111205455e-01  -1.4323627073975007e-01 -3.2366908162041463e-01 -3.7136101838243468e-01  -2.2238076091345726e-01 -2.8015426627138135e-01 -3.8946984727279582e-01  2.8375171474247352e-01 4.6097445840536889e-03 -1.7173439857333445e-01  2.8047051859241307e-01 5.4912596349749009e-02 -1.9997823544770058e-01  2.4920620672957702e-01 -9.9354768954370815e-02 -2.0363964890059019e-01  1.1862610589694647e-01 -1.5544995409594517e-01 -3.3816447416816942e-01  -5.3420151465565807e-02 -3.6659045575904436e-01 -2.8144439017893863e-01  -1.4692513869796414e-01 -3.6987868689137909e-01 -3.0440681630072780e-01  -2.9758835347419238e-01 -1.6497600767663548e-01 -3.5618911070926218e-01  -6.3464361850076617e-02 -4.5051829064097426e-01 -6.1887407790205295e-02  -2.3265984729652087e-01 2.2956433422912215e-01 -3.4261916874896515e-03  -1.1250143865696639e-01 1.7562297884108621e-01 -3.2982682728408230e-01  8.4177475617859474e-02 4.4123087538032041e-01 -6.4571651497793203e-02  2.6542669410017905e-01 2.7597722651605222e-01 -1.5388546446698512e-01  2.4167390025206487e-01 3.5112108229353411e-01 -1.1670402055928461e-01  7.9340738112873135e-02 4.3158160378128341e-01 -2.3526337729241363e-02  -1.7336015250516443e-01 1.5394857062680201e-01 -2.5813143122948179e-01  -1.5575097969434273e-01 3.4535401607259569e-01 -7.6180700731559052e-03  -2.9497678641641208e-02 -2.9765696937351893e-01 -3.5393736254041441e-01  1.6854784447828078e-02 -3.1257115424851151e-01 -3.2244509907422175e-01  1.8180867572402259e-01 2.4592886742089229e-01 -2.7560795617906114e-01  1.3653529918544102e-01 2.2751440880596072e-01 -3.0839142868314734e-01  2.1515288303138469e-01 1.7686787530420772e-01 -2.7006527636214778e-01  1.7073430975599985e-01 1.3075378717480082e-01 -3.0630275715322980e-01  -2.4694842651201476e-01 -1.5933809919033587e-01 -3.9727396494828970e-01  -6.9228113581531296e-03 -4.6746648243926003e-01 -1.9247911092348427e-02  -1.8576838880942170e-01 -8.1258254934482840e-02 -4.0767784443870347e-01  -8.5805447434153491e-03 -3.7454275855108127e-01 -2.2664348610942134e-01  -7.5182604665031350e-02 -3.9873893659152315e-01 -2.0211117341924281e-01  5.5522148090140291e-02 -2.8415524238836590e-02 -3.7854701740402702e-01  -2.3517821323779449e-02 1.2365257241330967e-02 -3.8749389669774081e-01  2.6826465347614603e-01 1.4266935715326065e-01 -2.2099972753720337e-01  -2.7346619598222299e-01 -2.2755032556339494e-01 -3.8195673303269484e-01  -1.7454425973498416e-01 9.2084344170844282e-02 -3.4173433082423543e-01  -1.5756226553997985e-01 4.3814473604518914e-02 -3.7534055284595191e-01  4.5656332836835060e-02 2.6161756647613083e-01 -3.2062691901477680e-01  -1.8652134640994071e-02 -2.3798938464200259e-01 -3.7536138479496950e-01  1.5211653109677312e-01 -6.4086785974061061e-02 -3.3190157689134042e-01  1.2014117856882707e-01 -2.2881736720420823e-02 -3.5117369200431919e-01  -1.1475805640731582e-01 -5.3498837110664971e-03 -4.0114751231900730e-01  2.0706668246574347e-01 1.0407444192955008e-01 -2.8545009407786520e-01  5.6471856898230095e-02 2.0005023072454156e-01 -3.3849705127118229e-01  -2.4013671391117129e-02 1.7697808877279125e-01 -3.4821160228985959e-01  -5.9130205407384048e-02 7.3439633460839746e-02 -3.7381216502610781e-01  -9.6975311952138502e-02 1.2129633305144104e-01 -3.5711307712847068e-01  2.5828183212915018e-03 1.3446971370043437e-01 -3.5698144853502101e-01  -5.9672149321230258e-02 3.3040436857192085e-01 -1.5850562612053098e-01  -1.7129829426740062e-01 -9.6342936084293680e-03 -6.2650274330747033e-02  -1.5359476024984756e-01 1.0748195711731268e-02 -4.2299166352317313e-02  -1.4678895794779953e-01 2.3860284282276930e-02 -7.6084227378155483e-02  -1.3794274940617068e-01 4.5710944828604071e-02 -5.1057136323889439e-02  1.5201543813904930e-01 1.8209259063785468e-01 -2.2782607719130343e-01  1.6579728622272491e-01 1.3530564060457095e-01 -2.1779920847015635e-01  1.3894023593946123e-01 1.5984404309599962e-01 -2.5475696068672310e-01  9.9144076769144121e-02 -2.4558535629518261e-01 -3.9353860780281476e-02  1.7298549577173339e-01 1.5629222341602425e-01 -1.9504410734485889e-01  1.6057179534290847e-01 -8.0810469734551842e-03 -3.6028863740558914e-02  1.5517206962515409e-01 -3.1403449240678824e-02 -3.1115284026105895e-02  1.4829155278348921e-01 -2.5789309385871859e-02 -5.4008464036113035e-02  1.2459714018517191e-01 2.3475673038903910e-01 -2.1040990780268859e-01  1.4438751436941932e-01 2.3821392086197149e-01 -1.7468246210050456e-01  1.6640264320318271e-01 1.9903906552233647e-01 -1.8849258122633952e-01  7.1163257953675105e-02 -2.7152663200886190e-01 -4.4675740199320614e-02  3.8464265295024704e-02 -2.8634829526337879e-01 -5.2711220160890880e-02  1.4619512003983134e-01 2.4939650714679856e-01 -1.1194709269609648e-01  1.1943649084510205e-01 2.6730403948024473e-01 -9.6448313336342850e-02  1.5273836959173284e-01 2.3109428887404565e-01 -7.6683463042497346e-02  -2.0197289511624586e-01 -5.1488947290383238e-02 -7.9351228436255167e-02  -1.8788170334866203e-01 -4.0726985126816953e-02 -5.3426