<?xml version="1.0"?>
<VTKFile type="UnstructuredGrid"  version="0.1"  >
<UnstructuredGrid>
<Piece  NumberOfPoints="670" NumberOfCells="2005">
<Points>
<DataArray  type="Float64"  NumberOfComponents="3"  format="ascii">0.0355054079393981 2.483166616785309 -1.339562968359649e-15  0.2362832175723199 3.030216165548459 -1.350458072884423e-15  -0.6803748207299781 2.541725827976273 -1.312847099551272e-15  -1.335542697559589 2.298592379432335 -1.32869896320152e-15  -1.839741824006405 1.812213134802102 -8.971008771269449e-16  -2.151355986113035 1.178838762923901 -8.844746645723414e-16  -2.229943287735396 0.4822827644837238 -4.315951575690055e-16  -2.11158209065983 -0.2055067944687765 -4.321655607027047e-16  -1.758852051358335 -0.8002867499615507 4.968444865376775e-18  -1.239882996265036 -1.260866401964512 -5.199145574392359e-18  -0.5934832503022863 -1.521879292073066 -2.669357268815722e-18  0.1071887597029217 -1.566588673453095 6.631275486547564e-18  0.7962091460203345 -1.416279201046021 -4.201789428048283e-18  1.395172454029305 -1.050286616214402 1.24253462399977e-17  1.860616663455952 -0.5318634846935122 4.27410311738104e-18  2.10081352307111 0.116092277049224 -4.376155916809489e-16  2.107971246895803 0.7963010390037106 -4.41145830486191e-16  1.830621838904665 1.415776376597735 -8.843444097820983e-16  1.348360348554458 1.913454343374552 -8.765508369848475e-16  0.7275521974015214 2.273638622415354 -1.321558694548222e-15  -0.4989245349825083 3.078335426985108 -1.323279388845423e-15  -1.233502987869316 2.955316837481657 -1.319493568899398e-15  -1.899683336609084 2.615519706339897 -1.32380615496218e-15  -2.442210278661577 2.096127314893911 -8.962689898258111e-16  -2.819303166172903 1.45178431220057 -8.28228647744632e-16  -3.021136993606155 0.7291527433604935 -4.257682244559338e-16  -3.034862633883427 -0.01554324434380295 -4.263945871771483e-16  -2.847354419343822 -0.7382933325519893 8.234476182521057e-18  -2.48658299407952 -1.390922548176641 1.730300346580411e-17  -1.977013865646983 -1.932626794906442 2.308336418737529e-17  -1.348527488944975 -2.333853641638878 1.385734027321467e-17  -0.629606921907628 -2.548257496797561 2.247817276305331e-17  0.1127715061860632 -2.578002612295677 5.039432868158834e-18  0.843399572614586 -2.44185281246266 1.492835745656482e-17  1.523933848298797 -2.143754679416751 4.117268938896981e-17  2.119701819100291 -1.702097396616948 1.058625189790264e-17  2.603201481806351 -1.139618879388274 1.177836705084636e-17  2.954567212282216 -0.4821104636350253 -4.293050020167513e-16  3.152986570611547 0.2455846535462467 -4.277389085952651e-16  3.139657884973368 1.005575780125372 -8.798073795469561e-16  2.847800684984491 1.713369632290437 -8.760251035699971e-16  2.334138422230529 2.279880962572523 -1.33011883835892e-15  1.681589901746656 2.669254941692724 -1.344990301983882e-15  0.9690763105254802 2.899717874817021 -1.311833860079443e-15  -0.1027563060058812 -2.111436822564387 -1.1948583235144  0.4478473187388613 -1.815289312300635 -0.670534134806713  -0.2535532442303366 -1.823566452203228 -0.5435066494338407  0.4944205888524181 -2.093880993125657 -1.301959377127249  -1.41707091307336 1.951373645157007 -1.729349273240323  -1.700940485801416 1.719283289060427 -2.629707316308869  -2.046893841584232 1.457838893511387 -1.77972733212839  -2.20593453694132 1.303785459871758 -2.522946650239124  2.563530346055619 -0.6033071925039467 -1.97174839532601  2.704031397163668 -0.06871649777403818 -2.342855964013331  2.660296573095031 0.07206337428095254 -1.815437990870255  2.104409223597542 1.445896219240812 -0.8193008649359077  2.215510890185095 1.072652661695144 -0.5070740890854352  0.2906367871675338 2.46901629760364 -0.5684048589184465  0.8089510444576138 2.316854675095755 -0.7413283507636407  -2.202018614119321 -0.6144697368823648 -0.5387120068646947  -2.478804082348482 -0.2190487398416525 -0.8693256195764282  -2.387678507086001 -0.8392407275552621 -1.230627096155581  -0.7712559890774291 -2.249881558663417 -2.084707831134896  -0.1102688265904544 -2.385777060392105 -2.243243956161975  -0.3957100990543324 -2.265461435299258 -1.677676118623715  2.500895006176242 -0.3595657909350428 -1.350450857265254  1.695452126804014 1.7971762531151 -0.5138735303913857  2.210385822237846 -1.108398878971625 -1.577424953679508  -1.117785720129395 2.432958285697529 -0.5795991704870984  -1.795662165285777 1.958667137555975 -0.4960143458369316  0.9044211488007601 -2.206463095268988 -1.87624279532711  1.002902760900008 -1.870255208033312 -1.165869586369898  -0.5892524836451498 -2.331335535991486 -2.829399014553946  1.7733361267492 1.817535372334054 -1.248448270956325  1.310128573544814 2.100016399997948 -0.9734241547213898  2.669397479493424 0.3946053504646713 -2.26595024142611  -0.5771786614913826 2.239249634365056 -1.670022272767718  -1.081642639264549 1.981715747092472 -2.25756912869043  -2.170937792886467 1.420499380620332 -0.6588132278568763  2.537877008114402 0.8126810885407189 -2.470624742270178  2.718651721597511 0.2123312692539626 -2.931782325829981  2.431294856160643 0.8809841184645673 -3.313076623102988  2.070573680994281 -1.566027728403153 -2.250369812378516  1.828242137753339 -1.639593759697131 -1.737959794733298  1.528170601053995 -2.029740815144912 -2.29389672317373  1.401208817232746 -1.89982035142755 -1.630414028710866  1.549612733529131 -2.114748547889252 -3.151429678409602  1.082748279818019 -2.283817282649077 -2.597635266297946  0.7092438903003505 -2.413036699486189 -3.142896868368017  0.1596509450808068 2.377154695027849 -1.258503952230376  0.752388580958402 2.241085784419491 -1.455232713496271  0.496829005376811 -2.394715315170454 -2.382716718775811  2.544481968814062 -1.020439949093159 -3.346268928090762  2.268176888380565 -1.459960934842196 -2.839183200278683  2.105148324838206 -1.671900093772993 -3.341941552495273  2.460011430079141 -1.054634377141599 -2.439185342611749  2.575823221126229 -0.459539406026132 -5.022428641118325  2.696286810521262 -0.3807530036068749 -4.098448843197514  2.51239707697021 -0.9582867693085754 -4.294272656406688  -0.07940447478803823 1.88869652512047 -5.515748805391899  -0.3433024344230403 1.940485751426421 -5.009514270319964  0.2528968877500572 1.964117526558947 -4.959097875769995  -1.968645142460766 -1.418263103959057 -1.189850501012933  -1.680476412235816 -1.795745226695143 -1.833860377054641  -1.360424525877041 -1.816986649179865 -1.127315913300603  -1.10657568670435 -2.084959623949554 -1.690080386688372  -1.596979045837656 -1.370455498874769 -0.5721431115839242  -2.017253381401297 -1.03945947407936 -0.6932241632812015  1.589257907837021 -1.481353515164619 -1.062200001739126  1.60527661818806 -1.131674537391068 -0.4921896917951484  1.068407922974265 -1.546696181955037 -0.5775713511088906  2.048679310007698 -0.8735449970035818 -0.8755655913079121  1.377967734630547 1.989225648441542 -1.826315655001561  0.6801759499737773 2.100430592278429 -2.244744658676919  2.368161467112343 0.5657085823879182 -0.593160734922104  -0.5076569497269453 2.081846969487783 -2.518524338409738  2.57967805478354 0.3417152708706914 -1.20297194322969  -1.012841125710502 2.307104100321086 -1.2130882521361  -1.43928500859724 2.160911221025191 -1.029896251390198  -1.90537362352946 1.756034922795353 -1.14505925846575  -0.1860136486902756 2.025063491219077 -4.207191256049375  1.091160001265151 -2.235410381160918 -4.327274156222819  0.5375516139516902 -2.191524165831629 -4.76784674893094  1.186779085434791 -2.006277351231793 -4.935471339036784  2.584153025253593 0.7054792611173883 -1.679881413046782  2.360507438134626 -0.08412682577752367 -0.7058739958644078  -1.329755363637364 -2.031889931063338 -2.473264384891714  2.42924438462541 0.9753157599818638 -1.073199915281503  -2.505760086647535 0.8907762334919899 -2.98741413190747  -2.523488306863633 0.7618823781397005 -2.106216720823658  -1.45615282548519 1.75346417421684 -4.381457013300256  -0.8705429610644562 1.88676984272544 -4.747539300528381  -1.372151781441377 1.547243715005282 -5.221818693017619  -1.962824911606974 -1.563865233814282 -2.491185342404708  -2.453617451127461 0.3317515328049015 -0.6615366365808329  -2.35782705980046 0.8538959623317384 -0.5472654002069083  -2.371569673409907 1.013026562382162 -1.135556991228913  -0.3474389290554378 2.076342734400038 -3.408980150367056  -1.125764730250912 1.983114195763857 -3.097452877722286  0.1137561369423902 2.21175147378329 -1.906990791103116  -2.610846313440824 0.2351849809872291 -1.403092754348543  -0.3976171480552451 2.519915111002113 -0.8051360731796899  2.267946824185226 1.350489559948405 -1.50356323160547  2.348406671299632 1.199178409463833 -2.040115452831312  1.965190379535352 1.610727869980658 -2.043133711866747  2.195967366078675 1.27586223311666 -2.637373899446346  1.654616016939335 1.666827514958353 -2.774173790512622  -2.637251545959755 0.3991723828278205 -2.767132675660101  -2.669038221457493 -0.07459253180925134 -2.252698262843574  -2.615160705622597 -0.3045180364903322 -1.534244491905091  2.692704875402377 -0.4760743512158094 -2.737790286737255  0.06706214475383859 2.091551321408089 -2.644781704321653  1.363009201106688 1.72558905550646 -4.333619806692699  1.13713488086378 1.808264912174416 -3.485133398587863  1.728235048190162 1.525098835653122 -3.725540697934946  -2.586686532126395 0.3600958512135954 -3.548913166675594  -2.581056239173359 -0.1516104263898759 -3.152283191779452  0.6059718951548855 -2.39350535449982 -3.920348234611927  -0.9596038513009407 -1.724432868056696 -0.5615925961551267  2.688681285676367 0.2233849601760163 -3.849596111212094  2.456856367009517 0.8252230962749887 -4.219469830490647  2.063788999289209 1.320002133415716 -3.165433516159422  0.08919407324634919 -2.443967331428623 -2.753544483299861  1.086645502007451 1.928124070457872 -2.697249920788682  -1.932919107929881 1.001398029266654 -5.180989173030059  -1.564025771605528 1.090244471074475 -5.711726589919167  -1.76952399909916 0.5472133231755228 -5.797241891257059  0.4705213251564337 2.0036904003048 -3.089109367033435  -1.2
[...]
<PointData  Vectors="f_2268390-0"> 
<DataArray  type="Float64"  Name="f_2268390-0"  NumberOfComponents="3" format="ascii">4.5643838767720560e-02 4.6352670674225321e-01 0.0000000000000000e+00  2.0789696646202518e-02 3.8761120479259159e-01 0.0000000000000000e+00  -4.3734453470018655e-02 4.2296155457742035e-01 0.0000000000000000e+00  -1.3063620014629604e-01 3.4708861715334249e-01 0.0000000000000000e+00  -2.0025605781500408e-01 2.5862100063354604e-01 0.0000000000000000e+00  -2.5023999413251458e-01 1.6086216115389498e-01 0.0000000000000000e+00  -2.8151480499963732e-01 4.3779091482002701e-02 0.0000000000000000e+00  -2.8784208869936617e-01 -8.1938483596602676e-02 0.0000000000000000e+00  -2.6494868267608362e-01 -2.1512254229764033e-01 0.0000000000000000e+00  -2.1260059725214100e-01 -3.3562822342279153e-01 0.0000000000000000e+00  -1.2527421895180277e-01 -4.2201600551831242e-01 0.0000000000000000e+00  -2.5518861532366686e-02 -4.5501682497632617e-01 0.0000000000000000e+00  7.3152979932968917e-02 -4.2910528802141423e-01 0.0000000000000000e+00  1.5278555989579584e-01 -3.5493611078796444e-01 0.0000000000000000e+00  2.0089838664188145e-01 -2.3997516551287962e-01 0.0000000000000000e+00  2.1699082091809388e-01 -1.0583932174537170e-01 0.0000000000000000e+00  2.1340654351619134e-01 3.9378721947703275e-02 0.0000000000000000e+00  2.0085910785233874e-01 1.8936941221079123e-01 0.0000000000000000e+00  1.6867070951593091e-01 3.3088561749346418e-01 0.0000000000000000e+00  1.2067276762146315e-01 4.2913335172059908e-01 0.0000000000000000e+00  -6.3611531676980540e-02 3.5978430526091554e-01 0.0000000000000000e+00  -1.1688553725964511e-01 2.8907767760851899e-01 0.0000000000000000e+00  -1.4665640730122564e-01 2.1727819491508202e-01 0.0000000000000000e+00  -1.6459584051123433e-01 1.5413677058302117e-01 0.0000000000000000e+00  -1.7914351018019753e-01 8.8033125176651753e-02 0.0000000000000000e+00  -1.8506529738519620e-01 2.8277529135964725e-02 0.0000000000000000e+00  -1.9193282636919848e-01 -3.3795158779660356e-02 0.0000000000000000e+00  -1.9404058143769926e-01 -9.6603054704862856e-02 0.0000000000000000e+00  -1.8996910530955685e-01 -1.6383291703542821e-01 0.0000000000000000e+00  -1.6895165058121972e-01 -2.3598589023707944e-01 0.0000000000000000e+00  -1.2784780552501704e-01 -2.9669981783342020e-01 0.0000000000000000e+00  -7.6632385473621875e-02 -3.4208855187697024e-01 0.0000000000000000e+00  -4.7673047741600104e-03 -3.5867291301300375e-01 0.0000000000000000e+00  6.3262560664963788e-02 -3.4170977105401074e-01 0.0000000000000000e+00  1.1777353153288002e-01 -2.9395382773821344e-01 0.0000000000000000e+00  1.5078625427637005e-01 -2.2202432941869582e-01 0.0000000000000000e+00  1.5936736344799407e-01 -1.3882047079175566e-01 0.0000000000000000e+00  1.4148963710413567e-01 -5.8824102659991467e-02 0.0000000000000000e+00  1.1278503070116938e-01 6.1568557616641833e-04 0.0000000000000000e+00  9.8814671911724702e-02 4.3678351554488244e-02 0.0000000000000000e+00  1.0765472813480134e-01 8.4970744427732517e-02 0.0000000000000000e+00  1.2809208060010474e-01 1.5525496123941165e-01 0.0000000000000000e+00  1.2925897859012203e-01 2.5149902471748509e-01 0.0000000000000000e+00  9.0336678508037643e-02 3.4595618921105409e-01 0.0000000000000000e+00  -3.7283200559556751e-02 -4.2606104971933823e-01 -5.8997863514855965e-03  3.6310860756337306e-02 -4.4038646804674880e-01 1.6263898668428981e-02  -5.8614428315109580e-02 -4.4610916555503632e-01 1.6120933995530082e-02  3.2273466023182769e-02 -4.1402990164821529e-01 -8.7266403944690051e-03  -1.2893393835605574e-01 3.2844761880795131e-01 -8.6752615472298414e-02  -1.3687809378222743e-01 2.8379294310795550e-01 -1.0444390711333723e-01  -1.8031563962010416e-01 2.1478001198529137e-01 -7.1761461184746217e-02  -1.7476396890352752e-01 1.8238166478165008e-01 -9.6334311099446276e-02  2.2062179916220750e-01 -1.1375690024571938e-01 -4.7199949926655056e-02  2.2167966231125935e-01 -1.8608396340268910e-02 -7.0612991591363514e-02  2.1569856394973480e-01 -2.1047378912323410e-02 -4.6072709503593989e-02  1.8319620077565710e-01 1.8879494661495400e-01 -1.5920644579576388e-02  2.0173401745992839e-01 1.1050762082887196e-01 4.7895121027026963e-03  5.5988253532962551e-02 4.5420422656030146e-01 -2.9346532723252720e-02  1.0343367661015904e-01 4.2057967796084189e-01 -3.3182899709065482e-02  -2.6802054884464227e-01 -1.4876118021977611e-01 1.2000389693736400e-02  -2.5830041047417440e-01 -6.3857593800373730e-02 -1.0052290451089142e-02  -2.4361822653026113e-01 -1.5073178208651694e-01 -2.9634269969273454e-02  -1.1836476255688036e-01 -3.8126095319425124e-01 -8.1122104819323193e-02  -5.1362042354430412e-02 -3.9725658815246567e-01 -8.4150821479236651e-02  -7.4996626913051159e-02 -4.0229453010043426e-01 -4.5661075894324485e-02  2.1741610361953045e-01 -1.0860051304015074e-01 -1.6431117821896015e-02  1.7179475799923730e-01 2.7839229524136078e-01 -7.4979131307833851e-03  2.0483423162851400e-01 -2.1424540021020538e-01 -2.1767199664346076e-02  -1.0645504600941866e-01 3.6331521216144147e-01 -3.1024313428859081e-02  -1.8497903879606267e-01 2.6329896316477025e-01 -2.0337608600378383e-02  6.5733571068732191e-02 -3.7586174592600319e-01 -4.7212681689403423e-02  9.5864601132625321e-02 -3.9068178718455526e-01 2.8754966350059935e-03  -1.1100851843946767e-01 -3.8392262200922489e-01 -1.3132691070226668e-01  1.6046185124859907e-01 2.8660446551141483e-01 -4.7815315690932080e-02  1.3668540423198622e-01 3.6121099096448345e-01 -3.9186494260696363e-02  2.1168172462564688e-01 4.9842206790248006e-02 -7.3418702368194602e-02  -4.6842007579666292e-02 4.2747678268777850e-01 -9.6090843184200053e-02  -9.0446061900023134e-02 3.8104832713478920e-01 -1.0649286948497806e-01  -2.2375213439966979e-01 1.7894008442282391e-01 -2.0081152580289949e-02  2.0491475008685620e-01 1.2804194421704415e-01 -9.1133908761671059e-02  2.2267519599162736e-01 4.5965724784752235e-02 -1.0022560719207957e-01  2.1199916290399906e-01 1.7274475746100329e-01 -1.2339802249014128e-01  1.8419394541941489e-01 -2.4529276897122973e-01 -6.3080684637930234e-02  1.6723178094375843e-01 -2.8609938340260421e-01 -3.2799640004402046e-02  1.2713362887962529e-01 -3.1689244843811953e-01 -7.1706730867781718e-02  1.2541965181678275e-01 -3.4191086352724714e-01 -2.7239530583261267e-02  1.2428577191755220e-01 -3.0063923690617445e-01 -1.2299713227483268e-01  7.6357417386985912e-02 -3.4959198979849482e-01 -9.5578824939489535e-02  3.1810580214757085e-02 -3.6190473011468866e-01 -1.3313817378292600e-01  3.1962300229858652e-02 4.5401491850264913e-01 -7.3604240101809132e-02  8.4270432424179809e-02 4.3244188688026702e-01 -7.9249808378293346e-02  1.3965981372008529e-02 -3.8436533737122319e-01 -8.7064608652715078e-02  2.2460680334904892e-01 -1.2869128969380980e-01 -1.1793601152787118e-01  1.9995226693214049e-01 -2.0498245747685717e-01 -9.5902015460698556e-02  1.8491553884733364e-01 -2.2519596947431067e-01 -1.2535807667106261e-01  2.1650543056964552e-01 -1.6034150305085271e-01 -7.1278094000726253e-02  2.3107121666900562e-01 -4.5954689747651163e-02 -1.7772036271428679e-01  2.3706186292912745e-01 -2.7561632128505320e-02 -1.4429582785936473e-01  2.2583467071201030e-01 -1.1156000400476222e-01 -1.6011955785710907e-01  -1.0414912069261352e-02 3.2966072740246338e-01 -2.3753536448005272e-01  -2.3684946063259098e-02 3.5521366652237446e-01 -2.1307773164291596e-01  3.2404449543714450e-02 3.9034104874353098e-01 -2.0917333906031171e-01  -2.2304002442755932e-01 -2.5082378359604895e-01 -2.4985673455562466e-02  -1.9704687885122252e-01 -3.0154057587105165e-01 -7.1140492105527794e-02  -1.7599511780976990e-01 -3.4375016979774820e-01 -1.6122820680171006e-02  -1.4784084188354940e-01 -3.6266022767721495e-01 -5.4931365820094197e-02  -2.1979680812507721e-01 -3.0486051780689261e-01 1.4609984392939371e-02  -2.4816352935421590e-01 -2.2013612827815213e-01 6.1583567440166576e-03  1.6195581031197592e-01 -3.2548044990088282e-01 5.2188972463462777e-03  1.7924652764373744e-01 -3.1968040775413642e-01 1.6510918178805518e-02  1.1759864660190086e-01 -3.9821767407134356e-01 1.7961327286162003e-02  2.0818615487966424e-01 -2.2920685648317921e-01 9.5787110257610376e-03  1.3049411918837689e-01 3.6896573145811890e-01 -9.0685252011358880e-02  7.4774986744184271e-02 4.4636630975388930e-01 -1.1802561574732479e-01  2.1067062206951839e-01 1.3724122253886254e-02 4.5421771192650003e-03  -3.4221094921781388e-02 4.3691517217472736e-01 -1.2020221992186926e-01  2.0726080464974442e-01 -2.8402217502475715e-03 -1.9399832579791970e-02  -9.4131800890939907e-02 3.7876115338895178e-01 -7.1151487643445241e-02  -1.4016456832156612e-01 3.2134443880876928e-01 -5.5643561559891988e-02  -1.8123303754442252e-01 2.4289138534396099e-01 -5.2236827419494640e-02  4.2785005974903204e-03 4.1732318592786050e-01 -1.7958494718217904e-01  7.0313429941754768e-02 -3.1029280054253278e-01 -1.9672390763148978e-01  4.6726032453828755e-03 -3.3546528516780050e-01 -2.3346543711476103e-01  8.3772471112880331e-02 -2.9027151825066921e-01 -2.2641859719569996e-01  1.9930586289455055e-01 7.3859634452201700e-02 -4.9147670976241981e-02  2.1768208570823386e-01 -9.6199840966692679e-02 7.0894229531276529e-03  -1.7669024006078782e-01 -3.4263256813603943e-01 -1.1638098338955999e-01  1.9331160322979435e-01 9.8198421814879658e-02 -2.1318470750651651e-02  -1.8929356712323497e-01 9.0101739109818627e-02 -1.1820556052544925e-01  -2.0552387529112659e-01 9.1625233061102887e-02 -8.0002430835216201e-02  -1.0640885747956794e-01 2.5773430357910709e-01 -1.8201598839710997e-01  -6.4145694461417116e-02 3.2051499544453854e-01 -2.0100957833529498e-01  -1.0871927199213735e-01 2.0154077683007435e-01 -2.1727821177031881e-01  -2.2486600899006001e-01 -2.6465000698858532e-01 -1.2243247215950037e-01  -2.6248471509863847e-01 1.6968691629786165e-02 -3.6921727494951232e-03  -2.5541607896376756e-01 9.2794682263389688e-02 -5.1156217798662071e-03  -2.2512661343532109e-01 1.2405564562923208e-01 -3.6538058036758907e-02  -9.0925085229301567e-03 4.3579083107288202e-01 -1.4924028954178828e-01  -8.2289802637024748e-02 3.6564551597802442e-01 -1.2864721546753718e-01  2.2460709012007050e-02 4.6073198196376358e-01 -1.0631737950734924e-01  -2.3570999272864973e-01 1.3670265799190765e-02 -4.3990411214021148e-02  -2.2555935166455352e-02 4.3453032145201131e-01 -4.6451327502937831e-02  1.8066957414541795e-01 1.8250206386601681e-01 -5.1425709898597440e-02  1.8688071908399695e-01 1.7846019521220927e-01 -7.8166469870691480e-02  1.6778852507198966e-01 2.7191887748828880e-01 -9.0133198551759150e-02  1.8844844851600950e-01 2.3079929001568245e-01 -1.0928432795346828e-01  1.5717693529453999e-01 3.4220150339381128e-01 -1.2818010353158399e-01  -2.1244002966245135e-01 1.8625971586343035e-02 -1.1464405574242256e-01  -2.2940687240153515e-01 -3.8242749506194995e-02 -9.6078474064488162e-02  -2.3870898953140424e-01 -6.3651557230857150e-02 -5.2511617168430801e-02  2.2800902191711600e-01 -6.5837809400323813e-02 -8.6278998427202366e-02  2.2318910554727459e-02 4.6227066792003685e-01 -1.3034166102981742e-01  1.4083559986589145e-01 3.7137542083289027e-01 -1.7222252771344906e-01  1.2296349447532452e-01 4.1190887435170215e-01 -1.5336854821369464e-01  1.7098904053050137e-01 3.3134591087639287e-01 -1.5026334199015276e-01  -2.0876484846583626e-01 -9.7648083656159453e-03 -1.5422191405730332e-01  -2.3567667000873610e-01 -7.7459531148157262e-02 -1.4691085229262374e-01  1.4702987503710950e-02 -3.4967795757099668e-01 -1.8175678226314790e-01  -1.4995765561967808e-01 -3.9392404025699140e-01 1.2540897795297686e-02  2.3138639632563635e-01 6.4064614851399998e-02 -1.3330607974598760e-01  2.1791213809935903e-01 1.6306603871259559e-01 -1.4930080108841320e-01  1.8852169223435886e-01 2.6735019236469021e-01 -1.2900745036399205e-01  -3.5334597315854283e-02 -3.8785031197702663e-01 -1.1679092232306076e-01  1.1319829169668270e-01 4.1704221883689480e-01 -1.3249667352047204e-01  -1.4602999627475030e-01 7.4949159159351852e-02 -2.1426484151824698e-01  -1.2865658556803453e-01 9.6284613791175699e-02 -2.3576215039280868e-01  -1.5113300916074565e-01 3.4243993492711407e-04 -2.4651356130611660e-01  6.4429039668738072e-02 4.5803482763398173e-01 -1.4499185334602679e-01  -1.1917165483850334e-01 5.6602826047870522e-02 -2.6165397955286851e-01  -2.4591715754467172e-01 -1.6318828128302970e-01 -1.3178575999214054e-01  -2.1319549363267914e-01 -3.1963855277178177e-01 -1.6625844802110842e-01  -1.7180555334711803e-01 -3.5896939961030250e-01 -1.7174738818437449e-01  -1.1337633931021596e-01 -4.0172864230850741e-01 -4.8434570914410689e-03  -5.2888073823457041e-03 -4.0307303474645684e-01 -4.6912424999050163e-02  -1.5607624794627289e-01 1.7459782960863302e-01 -1.3107641305504272e-01  -2.3840649621407420e-01 -1.2018598371116750e-01 -7.9019416711457360e-02  1.9943858394223848e-01 2.4560502285249966e-01 -1.4336683533296427e-01  -4.7715057709256700e-02 -3.8051370624617809e-01 -1.6004210218306397e-01  2.3400685794927897e-01 -2.3280507992563482e-02 -1.1630096085669074e-01  -4.1762051131563144e-02 -2.9704303528454268e-01 -2.8988287876269453e-01  -4.0718006658699776e-02 -3.3204726914711730e-01 -2.7368882439669434e-01  -1.2592068951016566e-01 -3.2107845351379577e-01 -2.8836724352216980e-01  -6.7586902338603053e-02 3.5153464674682189e-01 -1.6664296724319042e-01  -2.5292914819965701e-01 -1.6807490195747993e-01 -1.8443212871984602e-01  -2.4816467782061286e-01 -2.5462524705160439e-01 -1.8053337395953231e-01  1.9016685145973411e-01 2.6258964135597046e-01 -1.6740768230875330e-01  -2.3164597418365390e-01 -2.0540053722664875e-01 -7.6230295691950556e-02  -2.4663618917266167e-01 -2.3096561408140645e-01 -2.2689520374767314e-01  -2.1912679192271334e-01 -3.1614237780321502e-01 -2.1226990756517669e-01  1.9544255970845445e-01 -1.8985945652762801e-01 -1.5883560085660339e-01  1.9421282709831750e-01 -1.6848668700124456e-01 -1.9306848517888262e-01  1.3972596650091013e-01 -2.5251730817583495e-01 -1.9158323811073252e-01  8.0720031763058378e-02 4.2571152150247477e-01 -1.7795937301347473e-01  1.0420817918130392e-02 -7.6044580037550019e-02 -2.8437739598807021e-01  -4.3007826650018205e-02 -6.6493020776010991e-02 -2.9543259355144191e-01  -1.5591938034669770e-02 -4.2522765102212213e-03 -2.7969276699089118e-01  1.2046555050351655e-01 2.9641182781708053e-01 -2.2977531735899903e-01  9.5124849248970175e-02 3.7648841977220587e-01 -2.0459838448980397e-01  1.5606441018365377e-01 3.0193296155330568e-01 -1.9734858999944574e-01  9.3466858452899898e-02 -3.0851184330982212e-01 -1.6454238123371848e-01  1.5148849001367964e-01 -2.5876553458896601e-01 -1.5148560944155273e-01  -1.6496800449011173e-01 -3.4125267530487846e-01 -2.5143168028949492e-01  -2.1767609851453470e-01 -2.9291703382211504e-01 -2.4885971046588670e-01  -1.8532593270287606e-01 -2.9553718629172521e-01 -2.7896249438427945e-01  -7.6619912149008471e-02 -3.6508263288980847e-01 -2.2057958552875581e-01  -1.1738238204432430e-01 -3.7713156112674723e-01 -1.7987381715014938e-01  -2.3387675085233497e-01 -1.2817306878678289e-01 -2.1758510052537142e-01  -2.3171700502892756e-01 -8.4945639108999743e-02 -1.8323937357434186e-01  -1.2254278244301349e-01 2.6162495249861817e-01 -1.4617824835017121e-01  -1.4855459113849079e-01 1.2108974089374351e-01 -1.7724762703704416e-01  -4.0681903693433302e-02 1.8783573376820939e-01 -2.8041802710276870e-01  1.5135710715239904e-02 2.6487592751015027e-01 -2.7203510006128762e-01  3.2812688051907903e-03 1.9946431828337294e-01 -2.8304618999361791e-01  2.1285880681243971e-01 1.6122335026578791e-01 -1.7574999813099001e-01  1.6815415408936416e-01 -2.5920640916696719e-01 -9.7508858418967032e-02  2.2174683222374347e-01 6.4695196785995626e-02 -1.8462769671061516e-01  2.3268205999684075e-01 6.0780285404155726e-02 -1.5832919871212048e-01  -3.4104361812387053e-02 -1.4296061302021440e-01 -3.0078327508072489e-01  5.6371395167080222e-02 4.5057936608105431e-01 -1.6156974345350733e-01  -1.6009099813619054e-01 -3.5896176237541805e-01 -2.1305290505474256e-01  4.2234569300058096e-02 3.3034832354318672e-01 -2.4526090683354423e-01  -2.1654780208124697e-01 -2.4169449854357825e-01 -2.7083619609297299e-01  -1.9471423374481853e-01 -9.6909859895342142e-03 -1.8977878199854190e-01  -1.7425160190572014e-01 6.9504226736060840e-02 -1.5430650613876346e-01  4.1747422158403137e-02 -2.9970898564350423e-01 -2.5997459832551156e-01  -1.8795250157642129e-01 -4.7452324805618208e-02 -2.2983469835281187e-01  1.5926934237980575e-01 1.6509714560056088e-01 -2.3114273406512106e-01  1.0899577132547471e-01 1.7980335442239148e-01 -2.5963501293889096e-01  1.2299852325083649e-01 2.3566344645144061e-01 -2.4545923751415130e-01  1.3239895743911331e-01 -2.3838390040104862e-01 -2.2814626541134958e-01  -6.5184612277268822e-02 2.6037305303091063e-01 -2.3991246702443719e-01  -7.9276061862406211e-02 1.7383426924162232e-01 -2.6615361687466899e-01  -1.0307125724607243e-01 1.5869862142455757e-01 -2.4498478160662884e-01  1.7437110659848995e-01 -1.7538226683722472e-01 -2.1737814676055159e-01  1.5376648022780784e-01 -1.7097183415076769e-01 -2.3269747441279034e-01  -2.4804397627416864e-02 2.6902489957412279e-01 -2.6391318633721134e-01  -1.6884698406683618e-01 3.4404052173429268e-02 -2.0158866672439218e-01  1.8191225048655862e-01 1.9337879958311754e-01 -2.0763385364531917e-01  -1.4006994552430149e-01 -1.3501292811127918e-01 -3.0250784795683366e-01  -1.1317257199792820e-01 -3.1473723916897373e-02 -2.8909008971942712e-01  -9.1561402275601236e-02 -9.6336833060652632e-02 -3.0305997412634300e-01  -1.5049401447342259e-01 -6.7797443915254524e-02 -2.7853710532361403e-01  7.8718523405498758e-02 -1.5272592558675258e-01 -2.7260830838289862e-01  1.3755553929657874e-01 -1.2692184403908086e-01 -2.4547137049578596e-01  9.1080800310021179e-02 -1.9957002504344654e-01 -2.6315639974634653e-01  1.3147203558676118e-01 1.0953711713253511e-01 -2.4788718423883702e-01  6.3574428337208375e-02 -8.9182841331820167e-02 -2.7343822890620456e-01  2.5595246927713894e-02 -1.3746573031723289e-01 -2.8824771989623632e-01  -1.3203041843795574e-01 1.5887074346671434e-01 -1.9895104534374189e-01  -1.5522822646613510e-01 -2.1417293099898102e-01 -3.0494750089690514e-01  -1.0523489396716693e-01 -1.8303456539728591e-01 -3.0899704208644713e-01  -1.1409281823488394e-01 -2.6382292406248425e-01 -3.0469397087588651e-01  1.7796637207463523e-01 -6.8810240944576911e-02 -2.2316462765087086e-01  2.0955800634699071e-01 -4.7425372137115136e-03 -2.0278458918802381e-01  2.0288966970816380e-01 -1.0823401761216414e-01 -2.0709004422153016e-01  1.6480938972086173e-01 2.4981509728067574e-02 -2.2805647520229386e-01  -8.6192087800762554e-02 9.1329085551060049e-02 -2.7934108901264049e-01  -7.0864620009798068e-02 -6.7019351427268798e-03 -2.9071299689542984e-01  -3.6017645047990217e-02 9.6860533822766312e-02 -2.8472736987938385e-01  9.7644396525479502e-02 -2.3983962185322699e-01 -2.5237039008011047e-01  3.6819717384341179e-02 -2.6555689562749979e-01 -2.7406218910044594e-01  1.0931064217439796e-02 -2.1732985942431421e-01 -2.8998117377979138e-01  -2.2099030434130654e-01 -1.5977714361260048e-01 -2.5295076548742479e-01  -1.8052714583029209e-01 -9.3167407404194283e-02 -2.6244354784879886e-01  -1.8838606736446867e-01 -1.7720677220838008e-01 -2.8840596826339177e-01  -6.0997479819625021e-02 -2.2975628978475149e-01 -3.0271335649013176e-01  1.8942757387728654e-01 9.0923654352985953e-02 -2.1334400586215771e-01  -1.7238427965548728e-01 -2.6255687008970174e-01 -2.9596796861806163e-01  7.0395015896769358e-02 2.7908945300786031e-01 -2.5977978949160535e-01  5.6998403496718753e-02 2.1547036970271974e-01 -2.7515513073122033e-01  1.9054795367894559e-01 2.2219965779747083e-01 -1.8813526347138104e-01  7.5827785532911321e-02 8.6716950730312811e-02 -2.6578200338074498e-01  1.8928044579127720e-02 9.1250040521681383e-02 -2.8126201289101810e-01  6.9304113490341476e-02 1.4816997720500530e-01 -2.7413898450974589e-01  1.0996803391382544e-01 -6.4791151071170006e-02 -2.5663791705471345e-01  1.1200320975367606e-01 2.6002885721418696e-02 -2.4795059157607274e-01  1.7992836901276916e-02 1.4531894384918229e-01 -2.851088332116