<?xml version="1.0"?>
<VTKFile type="UnstructuredGrid"  version="0.1"  >
<UnstructuredGrid>
<Piece  NumberOfPoints="617" NumberOfCells="1845">
<Points>
<DataArray  type="Float64"  NumberOfComponents="3"  format="ascii">1.78615927445653 1.261595138703785 -8.767345858348083e-16  2.860562970512107 1.057451268469865 -8.728047383843924e-16  1.297858940631173 1.718725541395814 -8.61534740113416e-16  0.6993428220083406 2.036425599209707 -1.305168844210879e-15  0.02487112162469039 2.200705764778356 -1.322573440696547e-15  -0.6620805810347282 2.223420177557241 -1.319632437216307e-15  -1.267906635312851 1.941490481789201 -8.683517045544812e-16  -1.714169402138066 1.444364391098694 -8.68994531232015e-16  -1.929807477757259 0.8106520999995391 -8.701857156805821e-16  -1.931026178842423 0.1528703240624952 -4.370647497818273e-16  -1.678059624634569 -0.4491017089453442 -4.314452470282114e-16  -1.217484662859656 -0.9183466438644547 -4.303728029419461e-16  -0.6303402927545376 -1.229669436713241 -4.348086349664945e-16  0.02078071629269131 -1.355592897006058 -4.43807006187609e-16  0.6784629507953439 -1.270114251214088 -4.307496461283365e-16  1.291150680349376 -1.013389067289826 -4.383211397261513e-16  1.759571624538039 -0.551987071073992 -4.382005942012102e-16  2.056430228608014 0.02946365536389881 -4.380671950197166e-16  2.059464538158901 0.669690398170103 -4.280395517082682e-16  2.476831791521389 1.679109698002732 -8.73645348027332e-16  1.906639776244725 2.128973140833757 -1.333239988592139e-15  1.254735915784974 2.419910738250546 -1.282002798289699e-15  0.5834102432783981 2.618569297110027 -1.287877220815606e-15  -0.09721303968833614 2.797639913099584 -1.341817106178366e-15  -0.8179018560100396 2.854134182886073 -1.316646774627602e-15  -1.512271763460493 2.634723796629216 -1.312405414936132e-15  -2.093500012514208 2.196852684971989 -1.284263229267612e-15  -2.518320801677811 1.611054384340372 -8.604829109500049e-16  -2.778671739732659 0.9354750579552492 -8.820492162747768e-16  -2.852223507823882 0.2176592186698268 -4.087462452318006e-16  -2.668036939753222 -0.4791901565352807 -4.215263706083728e-16  -2.315393843881127 -1.099631857069304 -4.089009290598199e-16  -1.822224534704664 -1.610711105818595 -4.156515102542985e-16  -1.229786173142223 -1.992114613478098 1.417023685849734e-17  -0.5647123545548817 -2.229535500764215 2.036515763654472e-17  0.1390422671335785 -2.285043332853211 1.305866162760821e-17  0.8361945762348624 -2.192553351451056 1.331784117410732e-17  1.49455026178461 -1.944037442031598 1.254580000874855e-18  2.078364032784397 -1.547329512437429 -4.385619123340792e-16  2.546792954346882 -1.011934493011836 -4.10997738578205e-16  2.870270991672039 -0.3732862221765627 -4.550370747251136e-16  2.990560068566106 0.337689295845871 -4.166698720931881e-16  -1.454194459812398 1.628107835370051 -3.759959072696841  -1.089588072059469 1.807895704364749 -3.105717876253738  -0.7273544911471999 1.822029047007339 -3.92455202499902  -1.75166249874705 1.442775826981391 -3.075553762117091  -0.9531782525384227 -1.926088863504309 -3.516446730340626  -1.238413397174157 -1.633003636889104 -3.73586827719832  -0.7662050570234247 -1.848437506186346 -4.139403072320452  -1.473055174947455 -1.637612383420137 -2.984318862244695  -1.07705670727901 1.815708359080419 -2.340392586473558  -1.661407672307952 1.500693239459395 -2.303104879402768  -1.348962749539338 1.755568275224087 -1.481984453562982  -1.056574966979926 2.075675397091953 -0.6787669138701334  -0.378448047833607 2.208951344445547 -0.8083547888456957  2.149838698324315 -1.053912342417929 -1.719284918547831  1.958947945869439 -0.8562364010441443 -0.8721448671436856  1.683502154331564 -1.344136814058616 -1.170091862419397  2.293411040340156 -0.4833241163048363 -1.249246313429642  1.389285902141531 -1.237608685470698 -0.5885600995631717  1.209880388228697 -1.747519280568879 -1.325560182281384  0.1380587690051598 1.819205896710104 -3.247493544781384  -0.037858173747768 1.830811863305545 -3.725970462598547  -0.4255082171777877 1.893759978860448 -3.201277599598294  -1.917999240319866 1.237079228858887 -1.78757734191778  -0.9735079066545473 -1.860852184564671 -1.370613956920567  -1.511863516447042 -1.611974239617599 -1.554524004632385  -1.120077880841397 -1.931977735763739 -2.197929093120434  -1.761170344993034 -1.481123553427346 -2.141705126365213  -0.3079193027513206 -1.920597279746487 -1.090222263955673  -0.8975117841397571 -1.531743136447381 -0.6338493714538707  0.6866002899334362 1.799099639380259 -2.139620370928863  0.3915548444115715 1.777117327572626 -2.809221524282857  0.01738976334470716 1.910381581669043 -2.215751222490715  2.218633206878466 -0.8182441025936092 -2.524924249763035  1.970801041357485 -1.433522650960584 -2.397286553572193  2.033443709852365 -1.140928286054545 -3.111673814792373  1.455753982293128 -1.98645094198869 -2.516079995073132  1.726391924159601 -1.631678671036168 -1.818844996570476  1.732593979226003 -1.699314641128595 -3.212506510865659  0.5113652132523213 1.723004260397749 -3.454292061067764  -0.541538989143123 1.999652462019649 -1.636525011470945  -0.0583162780821786 1.876733963503295 -2.717222692893326  2.052225485237466 1.162401068855966 -0.6528158391204677  1.540439793319899 1.707565430093137 -0.7280405252633622  2.309373377678992 0.4697468228785923 -0.6236490020136966  2.270213484693656 0.9169024272970929 -1.21300663424379  2.433218865887079 0.2269837173111068 -1.241272827294825  -0.2666332370779136 -2.266831583440199 -2.978518641006707  -0.556825560920695 -2.186204099567874 -2.492962627437319  -0.8132046561401457 -2.069023839310522 -2.935979678520546  0.1008803586059407 -2.303913104030542 -2.471781556804622  2.106606264741647 0.7358188757964524 -2.45564921013948  1.911172727374364 0.8206347339279668 -3.209645645446085  1.717052046958651 1.165491997273004 -2.542256343099451  0.1838510328049195 -1.825751281698513 -5.382658975231424  -0.01610035610595298 -1.527760155842023 -5.847693204770546  0.6154483912811408 -1.640445891464347 -6.011904226514723  2.022688339584752 -1.10717400025206 -6.891061770092623  2.130197116487131 -1.185010991723913 -6.302110463533606  1.711652582100205 -1.376732839352746 -6.391036342142608  0.06016044877064436 -0.2890845004173032 -7.108983569687632  0.6894419575566639 -0.6155549303634292 -7.4277398300667  0.3563365240552421 -0.9202923093689451 -6.990062035846989  0.1739017137548484 -1.242003833406357 -6.447256028351041  -0.8996367597909213 -0.3665345676149299 -6.078804658066513  -1.254792781938166 -0.4575894425408553 -5.44663693652766  -1.201594714492264 0.1314254728231373 -5.840834564118358  1.978851426703904 1.124914001900158 -1.942885795513413  1.387099258885339 1.519836463658218 -2.139575602485459  -2.202754657115797 0.7393531718505684 -1.231806424408517  -2.314266352800728 -0.02521551890310405 -1.118223936859418  -2.166670214603929 0.3988618432681592 -0.6012913400063522  -1.658338526925349 0.1672598832222963 -5.056887609423423  0.3221812391605267 2.06162503853101 -1.331530892957125  0.2262232446900759 2.208509472033687 -0.5956322121212254  0.8768782434229906 2.051960899423457 -0.8273940220694512  1.360627869309859 -1.606629194068373 -5.933714661383553  1.167188085033103 -1.427496494317988 -6.563010131004751  1.140653967085833 1.923516599242677 -0.4559083127169778  -1.992601716804912 1.09444678710234 -0.669115022528556  -2.07603557166195 -0.7116680760068074 -3.33391481481798  -1.718093467255679 -0.8664649353281775 -4.072926063071316  -1.614425762216117 -1.273167067952779 -3.629907542576399  -1.972024855379046 -0.3443260136526849 -4.123721868587632  1.739612118496455 1.533649814280881 -1.374602873197241  -2.364598027212219 0.3203113032909306 -1.64279713275774  -2.241610054251875 0.7574234271770417 -1.89734049747591  -1.559388807618506 1.71442807652701 -0.6900464713193821  -2.39642053380546 -0.1623945071543814 -1.777937417275075  0.4346290343789427 1.727701349245483 -4.15965959362059  -0.1900221066839843 1.767385584630554 -4.438896327314971  -2.245875426080469 -0.6563649161830007 -1.430452336366352  -2.151275337411887 -1.005086525917814 -1.987472956877485  -1.904473378481256 -1.19888529566238 -1.331879824829054  -2.343707520421727 0.4774148849520816 -3.051661318009653  -2.281017390312517 0.002713814769977903 -3.6211755790402  -2.364462075342864 -0.1612322038458382 -2.873565295747849  -2.216375359740867 -0.7160705567162899 -2.624941798943511  -1.955661198973271 -1.176919701345928 -2.663943064069385  1.047287244162027 1.529417241615657 -3.677961339355967  1.058414562516693 1.588531754968596 -4.608511207616523  2.197959200082134 -0.2283248508266025 -0.6337504685039638  -1.206616021167663 1.570985577129084 -4.375389629036787  -1.590934963065912 1.303098563843455 -4.371906309456102  2.299639866362012 -0.1414016756524736 -2.634868648772089  2.431247234368667 -0.003127052991797747 -1.898774833103206  2.353591901358521 -0.5329270547069004 -1.994979082212335  -1.296474756858221 1.242323482204824 -4.890071955857676  1.083503203685485 1.525653972297421 -2.774860355510853  -0.4904277547719409 1.920479556854937 -2.315388903572179  -1.406133992095142 -1.403704919965289 -0.8711940316418523  -2.380222967342771 -0.4196658522694579 -2.184665549011328  -2.405977073163116 0.2592611062892681 -2.32149718479908  2.351219734443025 0.5762698930955134 -1.855185075652284  2.154164011949859 -0.5255949753312452 -3.244916452840995  -1.690887212588993 -0.9492878383138295 -0.5850978527118762  -2.063525217995157 -0.6171419834966438 -0.8166609521318905  2.366455436603613 0.2884760493957621 -2.260100657566697  2.084992849773803 -0.9245813004159417 -3.950481688610506  2.205275423497076 -0.3199815894484906 -4.220925007339677  2.186808015037373 0.37602681128813 -2.815721023442807  -2.26805633997896 0.5809547365931559 -3.66708544623043  -2.076884854828792 0.3283271993459681 -4.261187191436578  1.472757270079175 1.256836998901826 -3.210523218649367  1.59016426485832 1.286003902242416 -3.955171566887062  2.053811926154665 0.8542541777042952 -4.128036274855193  2.1276595066
[...]
<PointData  Vectors="f_2626096-0"> 
<DataArray  type="Float64"  Name="f_2626096-0"  NumberOfComponents="3" format="ascii">2.5392032549801380e-01 2.1413901092647203e-01 0.0000000000000000e+00  1.2820902421413852e-01 4.1825215258864859e-02 0.0000000000000000e+00  2.3069007305411218e-01 3.8395360616839092e-01 0.0000000000000000e+00  1.5833749271654959e-01 4.9883169911057690e-01 0.0000000000000000e+00  6.0157938988533048e-02 5.2080871972127951e-01 0.0000000000000000e+00  -5.3040794721019566e-02 4.5882249883247078e-01 0.0000000000000000e+00  -1.5932702362647208e-01 3.6914932132451767e-01 0.0000000000000000e+00  -2.4890452780718492e-01 2.6376151612836413e-01 0.0000000000000000e+00  -3.1785020522301699e-01 1.3598403868233472e-01 0.0000000000000000e+00  -3.6080351310041181e-01 -1.5792223899808104e-02 0.0000000000000000e+00  -3.6822786473385571e-01 -1.8438051035128478e-01 0.0000000000000000e+00  -3.3137760417117657e-01 -3.5068710084844518e-01 0.0000000000000000e+00  -2.4949396747547792e-01 -4.7389585219009950e-01 0.0000000000000000e+00  -1.2952898633097648e-01 -5.3066717305809374e-01 0.0000000000000000e+00  -1.5916925229268674e-03 -5.1210275336666145e-01 0.0000000000000000e+00  1.0747310810872232e-01 -4.2475550489697206e-01 0.0000000000000000e+00  1.8184945039206007e-01 -2.9160058649751630e-01 0.0000000000000000e+00  2.2284082182074405e-01 -1.3313790816698237e-01 0.0000000000000000e+00  2.4551489296822598e-01 3.5649317645212272e-02 0.0000000000000000e+00  1.6327540896578199e-01 1.2157268108293155e-01 0.0000000000000000e+00  1.8286811365956090e-01 2.3833712480067470e-01 0.0000000000000000e+00  1.5487555687107335e-01 3.6440353920524077e-01 0.0000000000000000e+00  7.1881462821947503e-02 4.3542038137000300e-01 0.0000000000000000e+00  -3.5587989473710682e-02 4.1021296731355872e-01 0.0000000000000000e+00  -1.1130585335391210e-01 3.2308085763898287e-01 0.0000000000000000e+00  -1.4556392967748935e-01 2.3723216242019390e-01 0.0000000000000000e+00  -1.6359767857990853e-01 1.7135812815696488e-01 0.0000000000000000e+00  -1.8157626372129787e-01 1.1190166163253407e-01 0.0000000000000000e+00  -1.9738453825265267e-01 5.5711587605086432e-02 0.0000000000000000e+00  -2.1869399321739916e-01 -3.8768514137946441e-03 0.0000000000000000e+00  -2.5207199618424270e-01 -7.5804118356393557e-02 0.0000000000000000e+00  -2.7282966809403947e-01 -1.6472822456067898e-01 0.0000000000000000e+00  -2.6959991073318684e-01 -2.6470845790103908e-01 0.0000000000000000e+00  -2.2514377730093682e-01 -3.5275180018337254e-01 0.0000000000000000e+00  -1.5186557031716921e-01 -4.0902696705851010e-01 0.0000000000000000e+00  -6.3614137533876070e-02 -4.2289287640829581e-01 0.0000000000000000e+00  2.2749874369557683e-02 -3.9397384189593737e-01 0.0000000000000000e+00  8.8411668401649046e-02 -3.2564674116432296e-01 0.0000000000000000e+00  1.2143363081069909e-01 -2.3310142512448925e-01 0.0000000000000000e+00  1.3031251957119441e-01 -1.4701792071394273e-01 0.0000000000000000e+00  1.1811185558292203e-01 -6.6894635014907847e-02 0.0000000000000000e+00  1.1262406205583665e-01 -7.5720658589790582e-03 0.0000000000000000e+00  -1.7846302345076018e-01 2.6344072073601954e-01 -2.6501201034542571e-01  -1.3109808317031882e-01 3.6489796948633346e-01 -2.1317503435535415e-01  -8.6111413316660904e-02 3.7756581915080700e-01 -2.7981975425784750e-01  -2.2042776934106381e-01 2.4152550028973960e-01 -2.0779563872284637e-01  -2.4139834632715132e-01 -4.0955513348001837e-01 -2.9569016123800329e-01  -2.9279800712440535e-01 -3.7629763973195929e-01 -3.2888142803702664e-01  -2.2146332301844787e-01 -4.0098463962935560e-01 -3.5798229799296671e-01  -3.0819819067524812e-01 -3.6704360004209541e-01 -2.4976545025920044e-01  -1.3529105946203290e-01 3.8609121596121088e-01 -1.6322387865206625e-01  -2.1769442110112500e-01 2.8207409699429581e-01 -1.5223544891204785e-01  -1.8224298515014586e-01 3.4253540543244487e-01 -1.0789031531050769e-01  -1.3718656293059137e-01 3.8971739696917035e-01 -5.2929538646054715e-02  -3.2004090781989979e-02 4.7772160987760798e-01 -6.8963506158628229e-02  2.4555246269293737e-01 -2.1558989368982598e-01 -7.7440938850154753e-02  2.1191351894901894e-01 -2.6500008185322077e-01 -6.5983234608905424e-03  1.7495962115528041e-01 -3.4315922930021314e-01 -2.1602591336140290e-02  2.5069663968195938e-01 -1.4467396828897952e-01 -4.1251363261168204e-02  1.3634506882792116e-01 -4.0430381246054398e-01 1.3382656609702698e-02  1.0058304374557116e-01 -4.2078188975261138e-01 -3.2327433646154931e-02  5.8851452697096587e-02 4.8221651968759360e-01 -2.2631785737813503e-01  2.2178478777713641e-02 4.5829220015374506e-01 -2.5844038996629204e-01  -3.2383635157781532e-02 4.4788159130542549e-01 -2.2358216033225850e-01  -2.6015198515684806e-01 2.2178860921940144e-01 -1.1410704047335433e-01  -2.3656598762886111e-01 -4.3907183942240663e-01 -6.2810767178254373e-02  -2.9722700903929833e-01 -3.6112331979943924e-01 -9.0336445580218347e-02  -2.5222413783681924e-01 -4.1790769192579852e-01 -1.5844088005293488e-01  -3.2101006551044636e-01 -3.1980845868000829e-01 -1.6012096612853538e-01  -1.4390356683428035e-01 -5.0062000417053376e-01 -2.2030861395613804e-02  -2.5182989840108316e-01 -4.5998977971388827e-01 1.2854895378213145e-02  1.3375241718893766e-01 4.8500074489176359e-01 -1.7358284961070217e-01  1.0183786146359011e-01 4.9094705714469089e-01 -2.0250997639874066e-01  3.4202910272218813e-02 4.9791758173178158e-01 -1.7088366483785478e-01  3.2085519462093215e-01 -1.3186195798163375e-01 -1.5186334078072827e-01  2.5189386092343186e-01 -2.4143564257535380e-01 -1.4132376827637985e-01  3.3084373352304980e-01 -1.7223244833558862e-01 -1.9093461218727645e-01  1.5472015115203402e-01 -3.3660219815168763e-01 -1.5630956617443434e-01  1.8130436471995148e-01 -3.1887766151948721e-01 -8.6495269728222024e-02  2.4761894300187431e-01 -2.6288317453655130e-01 -2.0450422054190970e-01  1.1601488394454831e-01 4.7447687340925759e-01 -2.3297111530416459e-01  -6.0114360889605263e-02 4.5985832134706639e-01 -1.3253747430605722e-01  2.8259250042195559e-02 4.8788348203663628e-01 -1.9590695960205179e-01  2.4476969148179237e-01 1.8692857389428172e-01 -2.4964065598038807e-02  2.2118194224865120e-01 3.4876630739897740e-01 -4.3889300355310197e-02  2.3993779489369149e-01 1.4983302856979222e-02 -1.1230250418817013e-02  2.4946302992230296e-01 1.4195279429814231e-01 -6.6349858802131248e-02  2.5423528034607618e-01 -4.5518374585749918e-03 -5.1839169168689490e-02  -1.2709120968463222e-01 -4.4587623732617027e-01 -2.2285409410601045e-01  -1.7358045849922829e-01 -4.5232400767643405e-01 -1.7878078812019385e-01  -2.1619367077636065e-01 -4.3224818563239442e-01 -2.3119749010740565e-01  -7.0805782591282701e-02 -4.5596369556383370e-01 -1.6392279377305058e-01  2.9671416397460276e-01 1.8937613030556680e-01 -1.6679650391191822e-01  3.1045388343116120e-01 2.2548534939773623e-01 -1.9512977263981088e-01  2.6733945724445568e-01 3.1130375702142465e-01 -1.8335521871144031e-01  -4.8973170090462544e-02 -3.5710933817245072e-01 -4.2211122391042577e-01  -8.8097997341772927e-02 -3.2793198088929820e-01 -4.6917629400702926e-01  2.5902279868684631e-02 -3.1182338802865195e-01 -4.4645495826346354e-01  2.0652040097221225e-01 -1.5558957870022913e-01 -4.2337812162279304e-01  2.3775421928721047e-01 -1.7240272955528788e-01 -3.7595984444489627e-01  1.8215926140944286e-01 -2.2440024271064840e-01 -4.0647246755657895e-01  -8.0554198222986123e-02 -1.0795189945983899e-01 -5.4490907228835750e-01  1.3304492408786799e-02 -1.2965063945890370e-01 -5.3229533932941153e-01  -3.0190858835441842e-02 -1.9930908507915263e-01 -5.2575036914055984e-01  -5.7879441968691221e-02 -2.7274983455367446e-01 -5.0332089362442056e-01  -2.1747580237007144e-01 -1.6373953017979392e-01 -5.0525424560659560e-01  -2.8038007987587232e-01 -1.9232036519436174e-01 -4.6958907326172539e-01  -2.2832002601249016e-01 -7.5062617739410920e-02 -4.6737076435789354e-01  2.6317600484989667e-01 2.5367538551266677e-01 -1.4177362572669538e-01  2.1916519660828021e-01 3.9401420464776832e-01 -1.7190981760866891e-01  -3.0402050307543338e-01 1.1183321549720820e-01 -6.6608803423435517e-02  -3.3751908828160587e-01 -3.1107066998725685e-02 -4.9758119145103238e-02  -3.3405339830598241e-01 3.8078055418656831e-02 -1.3987313994249264e-02  -2.7872689729104883e-01 -7.1637659265627110e-02 -4.1667237331929691e-01  7.0201882948702873e-02 5.0419809894764855e-01 -1.1694617847284780e-01  6.5186372087233213e-02 5.1077001683398215e-01 -4.6639132770492399e-02  1.4959782233951632e-01 4.6852161102805551e-01 -6.5555886192144835e-02  1.4336426923218876e-01 -2.7334884433266166e-01 -3.9730465533047837e-01  1.0337140349872859e-01 -2.5508140289902353e-01 -4.5111635871727784e-01  1.9255851094229220e-01 4.3397059911645131e-01 -2.5090984217593322e-02  -2.8670853228942905e-01 1.7184094587269430e-01 -3.2222504015541102e-02  -3.6521028650642662e-01 -2.1075115796021018e-01 -2.8666391588597068e-01  -3.5360803557578957e-01 -2.6391624686190363e-01 -3.6906974862102448e-01  -3.4138609522305696e-01 -3.2092139730200109e-01 -3.2442758292966006e-01  -3.4822105587905927e-01 -1.6524003836923401e-01 -3.5966323477590811e-01  2.3047117467406084e-01 3.1871641419622093e-01 -1.0196584115663034e-01  -3.2202310188655831e-01 3.8068388933031272e-02 -9.9395792150863832e-02  -2.9827821434796997e-01 1.2052793401767072e-01 -1.2078536866347467e-01  -2.1478457824862537e-01 2.9732651977482466e-01 -4.6362555472975284e-02  -3.3936052514729137e-01 -5.2059073172265893e-02 -1.1415049261857893e-01  8.1580337626077151e-02 4.5290361001627005e-01 -2.7940160756735205e-01  -2.6427881463241883e-02 4.0642786026327099e-01 -3.1419233472755675e-01  -3.4579550835088657e-01 -1.4695349976502359e-01 -8.0212097683069541e-02  -3.4348570211308344e-01 -2.1432905161568117e-01 -1.4316174296742473e-01  -3.3313831345984379e-01 -2.6727306613306900e-01 -6.7609245562304993e-02  -3.1082874874649236e-01 3.2674850300240539e-02 -2.1885961781093799e-01  -3.3231300870941077e-01 -7.9298535003816159e-02 -2.8898013331482592e-01  -3.4695231772945873e-01 -8.2298767362294717e-02 -2.2180944245740733e-01  -3.6065077578072768e-01 -1.8176010711241730e-01 -2.1108301774560906e-01  -3.4963172699855910e-01 -2.7234036360182262e-01 -2.1968880290872475e-01  1.8988315876402725e-01 4.2700227134257729e-01 -2.3287531323749114e-01  1.5273553214676222e-01 4.0615277183520049e-01 -2.9294186673090145e-01  2.3513305277323895e-01 -1.3987389760045613e-01 -3.6542127271500138e-03  -1.5825551550707792e-01 2.5893539919848624e-01 -3.1951766293464207e-01  -2.0591014998479354e-01 1.7030877582172374e-01 -3.2371888670349747e-01  3.3829647503699672e-01 2.9376790591037445e-04 -1.6402088563290657e-01  2.8773468826626741e-01 -6.8327558929452146e-03 -1.0553245715584024e-01  2.9161096819038251e-01 -1.0189907173085908e-01 -1.0712972700022581e-01  -1.9004708586662272e-01 1.7152384146181698e-01 -3.6556876586792286e-01  2.0238934409976797e-01 4.3390370182035459e-01 -1.9870332644784591e-01  -4.5505436679030002e-02 4.6164642368991127e-01 -1.7121090059791924e-01  -3.0559384163986814e-01 -3.7086104139318771e-01 -1.2354732639002046e-02  -3.4779547975859643e-01 -1.0559074728943274e-01 -1.5866848526304642e-01  -3.2598655379867064e-01 1.6917593005731611e-02 -1.6142112928449201e-01  2.7508215021030497e-01 1.0936246885502880e-01 -1.1347266885819661e-01  3.7722872807080032e-01 -6.0128083124328303e-02 -1.9112943400464696e-01  -3.4720132417678790e-01 -2.8203070084583015e-01 1.1466050089402571e-02  -3.5233169910410378e-01 -1.6787106304444266e-01 -1.7523453112799556e-02  3.0128259883440617e-01 7.2574498291011938e-02 -1.4081230619717977e-01  3.6818952251328324e-01 -1.2696606803971164e-01 -2.1627339156082459e-01  3.9395214151978791e-01 -2.5153507484865164e-02 -2.0459389164328359e-01  3.2971410124509604e-01 1.1829008019499809e-01 -1.7671968183833323e-01  -2.8789324239429182e-01 2.8358067538107021e-02 -2.7365568696396814e-01  -2.9656184018424359e-01 -3.3372834464537607e-02 -3.4314844071223977e-01  2.5668007885370331e-01 3.5375663441580496e-01 -2.0438550066932804e-01  2.5272573821503741e-01 3.3171826017128087e-01 -2.3063135718516534e-01  3.1246494432550076e-01 2.0931133368123919e-01 -2.1950652376254506e-01  3.6848062506708507e-01 8.7580558722242186e-02 -1.9266250951439057e-01  3.4922931041449568e-01 9.9462720831795026e-02 -2.2116350803563103e-01  3.6035932775780305e-01 -2.5499855808394198e-03 -2.4570584238899335e-01  -2.5589231917332711e-01 2.3118437678525086e-01 -7.6635994648090275e-02  1.7665038838842254e-01 4.3847047427028490e-01 -1.2554897960306655e-01  -1.1979246952834624e-01 2.9612246488434796e-01 -3.5380882759983240e-01  -2.4088456624908924e-01 6.4306872630008186e-02 -3.6089888445378160e-01  -2.0988611828126902e-01 4.8746754758290628e-02 -4.1910290270174899e-01  -2.7702753008382025e-01 1.5790867540762665e-01 -1.6847375016532634e-01  -2.4187494210701083e-01 1.2083365498174549e-01 -2.8295284850614622e-01  -1.6149117348497763e-01 -4.7071008941162368e-01 -1.0783656174618210e-01  -3.5557399899266101e-01 -8.1281960165815723e-02 1.2516992725625546e-03  7.8157042473128741e-02 -3.2301837737155326e-01 -3.8170362118085222e-01  -1.0225279208104043e-01 2.5465831698579727e-01 -4.0115810421133419e-01  -5.4419363569437419e-02 3.4671388071678816e-01 -3.6450602888660211e-01  3.9652625809201328e-02 4.0871364289790796e-01 -3.3394881144718691e-01  -2.1434840398910757e-01 -3.8274387810581634e-01 -4.0849335490437721e-01  -2.7875744180494710e-01 -3.0852756260944597e-01 -4.5223528681895669e-01  -1.9488940041788427e-01 -3.4894553183996563e-01 -4.5355434969087310e-01  -6.7648543255660443e-02 4.3715710324019635e-01 -1.9504625831947273e-01  -3.0966458909898309e-01 -3.4259984918706449e-01 -3.9103819601929896e-01  -2.6876348640887965e-01 1.2745164226012418e-01 -2.2359672809618789e-01  -1.8245617851327781e-01 3.1858635965883969e-01 -1.8454342557541631e-01  -6.2955127230772887e-02 -4.7872419977715980e-01 -8.5547236324198958e-02  -2.6926741107436711e-03 -4.8772095227407908e-01 -2.3603972660250560e-02  -6.2262950680892777e-02 -5.3181846417157863e-01 1.8693058787845131e-02  -1.7890342236647278e-01 -5.1869371892318394e-01 2.1011107410823782e-02  3.6641053095291976e-02 -4.3253947938493492e-01 -1.0684442781861232e-01  5.5339765631683087e-02 -3.9990391926880597e-01 -1.7960860317465799e-01  1.2074191314246802e-01 -3.4255457325593275e-01 -2.2001421894598180e-01  -1.6252848300378755e-01 1.7313629334882133e-01 -3.9768711957531022e-01  -1.0713259972141721e-01 4.2253638819888684e-01 -1.0004823650484763e-01  5.7826948205204030e-02 -4.7948341666783850e-01 1.1168148489881567e-02  -1.5398557986447836e-01 -2.9121809371468199e-01 -4.9939390851203630e-01  -3.3124721125528572e-01 -2.2307268829896121e-01 -4.2268233113430603e-01  2.2273029679381542e-01 -2.1659540067227578e-01 -3.5692101690322886e-01  3.2622867680011530e-01 -9.3861293641432281e-02 -2.8427334993361975e-01  2.8148873526668716e-01 -1.3587077144998633e-01 -3.3438143046022517e-01  3.0785011087843095e-01 -4.3456414508433780e-02 -3.3079743414803925e-01  2.8002079750398179e-01 -1.7544938985367478e-01 -3.0025158161848919e-01  -1.1280542867299119e-01 -3.3738033334331417e-02 -5.3033930685685582e-01  -1.3022409400985355e-01 2.7943005343193821e-02 -5.0443181252312186e-01  -7.7482398032037061e-02 3.6532457158473537e-02 -5.2749341216563994e-01  -1.4000003837621530e-01 1.2579444282633012e-01 -4.4843416119479290e-01  -1.3084281349934193e-01 -4.0940368731012694e-01 -3.4632843274541619e-01  -3.0061716022967214e-02 -3.9154922767434513e-01 -3.2147863517437197e-01  -1.4739594441910062e-01 -4.2490147198315198e-01 -2.9282847638940179e-01  1.3930207546849943e-01 2.0784068579400319e-01 -4.4094754958786331e-01  1.6880378854275879e-01 1.3138857109437010e-01 -4.4312387739121312e-01  5.6660965205564087e-02 1.2644808281713135e-01 -4.8557646163741464e-01  -1.1057653663831420e-01 -3.8828677941916340e-01 -3.9457256642186145e-01  -2.2686631743281206e-02 -4.1442660316206170e-01 -2.4277261614572138e-01  7.4876740543830228e-02 -3.5187940503011605e-01 -2.7144384753705347e-01  -2.2832108728448372e-01 -2.6236630475996259e-01 -4.9489996043032836e-01  1.0575856563407215e-01 -3.1959662728401583e-01 -3.1873462909242095e-01  -1.6114997806454542e-01 -8.5758571667847699e-02 -5.1760040159661569e-01  -1.7940847593780418e-01 8.7863408182002785e-03 -4.6547108247416508e-01  2.0400636890958646e-01 -2.7921508526547784e-01 -2.5689313241355333e-01  2.4008203889026780e-01 3.1327241116335308e-01 -2.7576751395412841e-01  2.9066110809371576e-01 2.0678296678717528e-01 -2.7434104174146123e-01  3.0561604892806077e-01 -2.0784727409906692e-01 -2.2730606608198164e-01  2.8028666889703902e-01 -2.0730622192955678e-01 -2.6784158913225181e-01  -1.5363934194782023e-02 -4.4177845613522601e-02 -5.3798474249772843e-01  -3.2000025665966192e-01 -1.2844114489543440e-01 -3.9518990479738386e-01  3.2187225191690277e-01 1.0564903804022255e-01 -2.7762941033907074e-01  3.0130244828743441e-01 7.2469784337859791e-02 -3.3186054667990544e-01  2.6037140502637363e-01 1.8876791984782257e-01 -3.4349264313191313e-01  3.5464159550342383e-01 -1.0774842069416082e-01 -2.4085360134992420e-01  -1.9970304066156731e-02 3.2555410418340147e-01 -3.9406720834288184e-01  -3.4890739579178026e-01 -3.0076260070546301e-01 -2.7054052922211552e-01  7.0460273366270393e-02 2.3991371763689945e-01 -4.5310385430513628e-01  1.1147249161086603e-01 3.2262867190223127e-01 -3.9782326914607430e-01  1.7774387043343706e-01 2.6429229066409393e-01 -3.9075505857227816e-01  2.2280749154942658e-01 2.9219440114560674e-01 -3.3164175077272562e-01  1.7442247168845421e-01 3.5678133740915763e-01 -3.3194477004107503e-01  8.7108908440733490e-02 3.7588651134504319e-01 -3.6304591001207953e-01  2.5040532355322659e-01 1.0997680502322346e-01 -3.8779872815304212e-01  2.8123037008718199e-01 2.1761482757047302e-02 -3.7082463912010122e-01  2.2498097581457616e-01 3.0138707251108256e-02 -4.2106839668962454e-01  -7.0549603750111003e-02 2.2581516908642632e-01 -4.4224860461383120e-01  -8.0928665675040964e-02 1.5235491367476511e-01 -4.8738697843084638e-01  1.9010294060746713e-01 -2.6022917605920709e-01 -3.3060570645122012e-01  1.9465089419091383e-01 -2.6996860792961441e-01 -2.9036400630172199e-01  4.0271492448106534e-03 2.5321166137290885e-01 -4.5630628076608687e-01  -1.4592354073760641e-01 -2.0150092775025880e-01 -5.3005285731947416e-01  2.6483886744853979e-01 -8.2750979195277796e-02 -3.8400386626072791e-01  2.1241015381792616e-01 -6.1043763987214401e-02 -4.3443571816577031e-01  1.6212179702658083e-01 -8.0225961142186136e-03 -4.5789033647955230e-01  1.9858140996016672e-02 3.0803204356804492e-01 -4.1904333255368958e-01  8.7467268875807039e-02 -8.5989788774529410e-02 -5.0833740315136988e-01  5.2668991856927909e-02 1.2367785465313138e-02 -4.9800474224632990e-01  1.2483259478272370e-01 -3.7115480519804273e-01 -1.0041672814664626e-01  1.4430920884083226e-01 -1.9015896400645019e-01 -4.5984461603245341e-01  3.3159560900283452e-01 8.9136656738649789e-03 -2.9329316673124750e-01  6.7848757830202888e-02 -1.8831740317079956e-01 -4.9968029250264884e-01  2.6007572514616321e-02 -2.5414778902639013e-01 -4.8958130420253987e-01  -1.6356033893807281e-02 1.5022477789641717e-01 -4.9700860178620171e-01  -2.7310657380943642e-03 -3.6731769644285001e-01 -3.6228211122155829e-01  2.1471637465226084e-01 1.8491745947534793e-01 -3.9821350668715921e-01  -1.2735095774223982e-02 5.2203655228615975e-02 -5.1622272077261588e-01  1.2810809570954343e-01 6.7342845532674736e-02 -4.6498793401902105e-01  1.5007672697921479e-01 -1.2986232616513307e-01 -4.7532534384667913e-01  1.2167460980421664e-01 -1.5676714613165185e-01 -5.4773336843758805e-02  1.1288420631453094e-01 -2.1989638207599738e-01 -4.0041743785105208e-02  1.7941516216817288e-01 1.4844262296787658e-01 -7.0930680465621523e-02  1.7663294494407600e-01 2.5051981979067256e-01 -6.9042289815748406e-02  1.8410663297686175e-01 1.5672252697900682e-01 -4.2870589079602749e-02  -3.6780049175444474e-02 8.5037448247494263e-02 -4.1418657005223347e-01  -4.6020264136115110e-02 1.2489580017545879e-01 -3.9656316616319531e-01  -8.2203044166045403e-03 1.4083335816299031e-01 -