<?xml version="1.0"?>
<VTKFile type="UnstructuredGrid"  version="0.1"  >
<UnstructuredGrid>
<Piece  NumberOfPoints="683" NumberOfCells="2049">
<Points>
<DataArray  type="Float64"  NumberOfComponents="3"  format="ascii">0.5107856335535715 -1.355256829599829 6.338468767694762e-18  0.06540577369741664 -2.239551263386837 4.801266065838869e-18  1.097365104594202 -1.175035537141629 3.030604775413135e-18  1.567905349575771 -0.7804351024010248 2.341070234544169e-17  1.868166504990822 -0.2346802192947504 -4.365866978803983e-16  1.953482704706671 0.3744068533544677 -4.092869051453659e-16  1.761783960170705 0.9600235666259906 -8.792698735128287e-16  1.34448305671092 1.428202219964776 -8.751335460380294e-16  0.7891801361851002 1.740865099767687 -8.624766341637019e-16  0.1574958224584889 1.874408848045679 -1.330591675382878e-15  -0.4729765407946317 1.841057482301737 -1.335308196306654e-15  -1.016924662411008 1.522375067740126 -8.764649185433574e-16  -1.389034513268291 1.021862321956966 -9.012649620879973e-16  -1.528786464360835 0.4182766148995473 -4.431532558979503e-16  -1.448832406087528 -0.1904611701136946 -4.358868863855475e-16  -1.155836163346863 -0.7286880472678188 7.147053290262976e-18  -0.6859280772521434 -1.12054986136581 -1.30507231856805e-17  -0.1067688734965393 -1.33560795342802 -1.079675200213403e-17  0.7333192009320769 -2.272388229067859 1.978689730734919e-17  1.398626108524758 -2.113330093999935 5.568561491350517e-18  1.993643302979859 -1.760859027033683 1.917054707271727e-17  2.469788578882802 -1.261220982893385 -2.513751775951247e-18  2.808131633430336 -0.6594254868802955 -4.343023887535877e-16  2.995167135517132 0.01284988271888533 -4.527935114009232e-16  2.975427703378151 0.7175116222791174 -8.76470207020042e-16  2.691334665816605 1.36315334090418 -8.896121683376432e-16  2.226398675526329 1.890451819106639 -8.768533873229709e-16  1.65151597394156 2.277464107477488 -1.31784477976057e-15  1.014007695576317 2.536246917462351 -1.329943681196981e-15  0.3460300101665658 2.672719067832075 -1.314537350111213e-15  -0.3369747756829526 2.665474532683305 -1.324601478786607e-15  -1.005091573336754 2.509827171448531 -1.320634017267525e-15  -1.615171833799166 2.18172525859092 -1.340768581502423e-15  -2.112638506171951 1.701090132334342 -8.618206273957396e-16  -2.452321675904197 1.090320739491007 -9.123882834180593e-16  -2.571840672747426 0.4001440343153994 -4.333388167429577e-16  -2.484856580314858 -0.2902239437034117 -4.577923119799848e-16  -2.184220480619427 -0.9120247236513558 3.832392755069309e-17  -1.73656594500288 -1.426544848069163 4.286440584623281e-17  -1.192760920223583 -1.823298044427841 -1.495214007147248e-17  -0.5848926104737706 -2.094609463431561 -1.389081187950092e-18  0.5238723855625957 1.648711140937664 -6.331170896023246  0.8946963586855077 1.416924050040468 -6.896496591016968  0.2660077108713382 1.489553361527517 -6.744805963613297  1.137397709344821 -1.801996386543441 -3.02907778279547  0.4864631342197761 -2.021952693071505 -2.86657436501898  0.6681580486684431 -1.98093628508055 -3.582552812805858  0.02798262341958164 1.800301274205456 -3.682023923082105  0.05389263018809211 1.714659139361543 -3.008704884477011  0.6714002383702956 1.63637617727463 -3.299894115551925  1.951377764255204 0.6114852986309735 -2.045075624648352  2.038174399575671 0.2035155668514709 -1.721386965000702  2.038948771433597 0.1589535269212521 -2.304980257994105  0.4925844211321252 1.616873505660546 -2.458977967264992  1.967522271638845 0.6363069980851001 -1.483667176357627  1.090679979082265 1.639893050576004 -0.655487542700558  1.342826890297865 1.440065720233904 -1.378283266544287  0.8359225959594025 1.695736488683026 -1.225436618565471  -1.126895073258076 1.443147279747863 -0.6504288902431165  -0.6558683078963152 1.727127748613631 -0.5637947448009624  0.2523196970115741 1.724690622173598 -1.652136825282103  -0.2514876214522522 1.79215442762706 -1.080934369428928  0.3813436324853218 1.827421971427285 -0.7541250848873623  0.9388843045461552 1.662003209083381 -6.014619361663931  0.4338964330877844 0.8223245176228399 -7.866804720212556  0.7419945480618096 1.127115597605759 -7.495112483148891  0.9448810786903774 0.6975914741880667 -7.975649267868106  -0.1225549928861471 1.865812681469102 -0.4074971022601726  -0.4968729107789935 1.847655923364104 -4.682022618198769  -1.021468250690432 1.664477089068321 -4.974777808266536  -0.9306838986679423 1.750914999657973 -4.346723397728871  -1.090366911900746 1.679239168996665 -3.669133721975846  -1.377070322494232 1.564370776315981 -4.337185077985525  -1.691266680527524 1.362254365766769 -3.816430418860025  0.8052557115656842 -1.730808460436249 -1.218063072937176  1.001947873209874 -1.830551677852059 -1.902978213197184  1.428326112683014 -1.417542075046559 -1.37539866850087  -1.554602140054431 -0.6130191409175735 -5.017044027351857  -1.361364588515776 -1.062801334481565 -4.702317949838419  -1.700620961349728 -0.746480915171893 -4.29260532622714  -1.102948875081747 -1.111664351263162 -5.266735233874576  -1.593843481356928 -1.114601348807547 -3.470202514276803  -1.886735522693897 -0.7305490292029608 -3.100815957616974  -1.823734279260278 -0.7102228326620115 -3.704563442281564  -1.578032661176771 -1.215418023954567 -2.997672937484151  0.9804152281304406 1.528653642060133 -1.909548543934453  1.605891910181088 1.140281106525394 -1.949347681603248  -2.007868862975577 -0.1395450747886975 -4.013427832437323  1.481029129697538 -1.526451477382391 -2.329049470727135  -0.7757365093443914 1.650880078183852 -1.254743330543886  -1.867785570602632 -0.2196112397878515 -4.58188145174463  -0.2334930664301505 -1.972716428920597 -3.963468978768936  -0.1045176289781131 -1.925051050205804 -4.51344003948715  0.2777151223305788 -2.010211819992111 -4.115133017433639  -0.5975174019277989 -1.761799262912758 -4.502901044975204  0.3741842225629307 -1.96491686470877 -1.736377779072957  0.9862180130912908 -1.830572792004372 -4.312086275132399  0.4722274688607226 -1.870492174828681 -4.901578284665371  1.086507623579707 -1.690856239926428 -5.078665613255132  -1.150313287953712 -1.52272934951505 -1.148757734581536  -1.573980578426739 -1.052272779325475 -1.081019560527402  -1.502960524634732 -1.300199772290033 -1.827545043461418  0.1529033930173725 -1.870812388399596 -1.252052396800597  1.214212479121661 1.345964401227346 -2.673566632530719  1.273209039130157 1.415339530568764 -3.531742060639055  1.300911716709675 0.9635765204740649 -7.516590614145335  -2.005763547657065 -0.4724350644594442 -2.597653634995418  -1.73123236788428 -1.029277683458634 -2.49182407367321  0.8076609055564965 -1.503657691757308 -0.6128687475522132  -1.92808602607901 0.03264776454060372 -1.29985022019828  -2.056661039043483 -0.1645453990575802 -2.011784251155598  -1.970466206834468 -0.3904787268924843 -1.603097842424198  -2.000134146901186 0.3736458949313212 -1.950897096811544  1.345709535524189 -1.226386360416478 -0.6631910411923576  1.98952756946795 0.6039931639038192 -0.7012092136102657  0.06242627335948117 -2.005467640326107 -2.340060540065305  -0.4197435099115737 -1.923003943078025 -2.391060283617512  -0.1494209510188896 -2.01387939509757 -2.888355933531075  -0.3369996020211171 -1.920204062401797 -1.795578760993472  0.9762115104280058 -1.891459689286805 -2.493736340094291  1.808116663537175 -0.7960986716089758 -0.9288025036868763  1.986549209445603 -0.1869506019433835 -0.471424017956754  2.052402970480973 0.01244028219108155 -1.12972121155764  -1.281362649433901 1.315561218953687 -1.344800867102725  -1.706395007939837 1.028315122069507 -1.989418446511566  -1.693476470727321 0.8026573650614917 -1.309369783043996  -1.10906771825812 1.542469089439623 -2.004000990518455  -1.452082067220252 1.081115031539125 -0.7734613188153141  2.007317879346289 -0.3608864027622433 -2.52188847163545  1.889154987276348 -0.8007054470955286 -3.003737325188589  2.018299784067119 -0.2630459753582035 -3.331629427743514  -1.544926753596612 -0.1188809961456705 -5.665771710837485  -1.776365798686845 -0.03964794027064304 -5.0766858877933  -1.196845980261543 -1.543689330357926 -3.383909751085642  -1.010786335641434 -1.593610921385981 -4.06767819358512  -0.7301076202477675 -1.81765756369978 -3.699743191069922  1.659597989087602 -1.240386209531275 -4.016918765028485  1.922056266127767 -0.883425904106051 -4.578234009272932  1.865101833631141 -0.8212712147787899 -3.710582324731337  1.862470835751774 -0.8853392682047355 -2.304087760922815  1.775754497483236 -1.06951151094244 -1.702046417431501  -1.405237563534253 -1.23388192686899 -4.054935952365672  -1.670719435218704 0.5659052689487661 -0.6179437439530907  1.97956892402969 -0.4378586664379216 -1.683009381255627  -0.398497100205283 -1.954051365954414 -3.299851941718373  0.08826837126892394 -2.028781212040401 -3.412952312637415  1.621063723932544 1.239783931914536 -0.6551352831559325  -0.5543157527274427 1.710666841109472 -1.913680215015352  -1.231596918416375 -0.6532078131078759 -5.807023870789974  -0.8812068141612366 -1.747881086213683 -2.233332368865168  -0.8988398120869014 -1.715079762299597 -1.638187282082478  1.172861392614269 1.594321055397271 -4.33173618245803  1.58959680283684 1.290851598319957 -4.097986675931634  1.571047172911292 1.389629694995032 -4.738644783005641  -0.1477339481490739 1.711866879810358 -2.410575546493179  -0.5217626936731646 1.754185436627611 -3.163452527777492  1.060819530652722 1.693417998339201 -5.201199466912025  0.6084778491507019 1.837304457833918 -4.56000721403335  2.142766953849923 0.2175547242620309 -4.183037633454435  2.195260699843742 -0.2337971682023445 -4.821069888332779  2.241205657375058 0.3560082557419139 -4.85722409700232  2.299719067438958 0.03868068927110027 -5.464994410200786  2.219218679174639 0.5340487000358354 -6.126931632696579  1.809627446265748 1.171614332652145 -6.046256538907508  2.115144409178936 0.803479509531993 -5.32233210672178  2.009560817803909 0.7742551187935109 -6.743449107125562  1.316511990385972 -0.1519394740802873 -8.273099379441085  1.097018370896659 -0.687428779
[...]
<PointData  Vectors="f_94114-0"> 
<DataArray  type="Float64"  Name="f_94114-0"  NumberOfComponents="3" format="ascii">-1.9409693431502832e-02 -4.7498302829356354e-01 0.0000000000000000e+00  -5.8273055750151244e-02 -3.5005156699164058e-01 0.0000000000000000e+00  1.1892864461443484e-01 -4.2686318994584371e-01 0.0000000000000000e+00  2.3572568601170246e-01 -3.2678295747327524e-01 0.0000000000000000e+00  3.0786014364514580e-01 -1.9335676565627108e-01 0.0000000000000000e+00  3.3724756838685782e-01 -4.0169541988323010e-02 0.0000000000000000e+00  3.2919912931413392e-01 1.1654001670469216e-01 0.0000000000000000e+00  2.8355458948580731e-01 2.6392381433144918e-01 0.0000000000000000e+00  1.9653184351591779e-01 3.7566567796621619e-01 0.0000000000000000e+00  8.3623029599306703e-02 4.2939878010403576e-01 0.0000000000000000e+00  -4.4521398217163576e-02 4.1088194758169733e-01 0.0000000000000000e+00  -1.6631977243637966e-01 3.5064145266910152e-01 0.0000000000000000e+00  -2.6998865282089762e-01 2.4952850477560126e-01 0.0000000000000000e+00  -3.4431612573224391e-01 1.1041605315252334e-01 0.0000000000000000e+00  -3.7260638187532585e-01 -4.9869545386131295e-02 0.0000000000000000e+00  -3.5225381123034699e-01 -2.1325815983934973e-01 0.0000000000000000e+00  -2.7809431892189007e-01 -3.5660073974066098e-01 0.0000000000000000e+00  -1.6079649736888771e-01 -4.5316018370806754e-01 0.0000000000000000e+00  2.6939082094223570e-02 -3.2274586583455472e-01 0.0000000000000000e+00  8.7758675814344531e-02 -2.7364666469272536e-01 0.0000000000000000e+00  1.2287287365634830e-01 -2.1846906763609178e-01 0.0000000000000000e+00  1.5021824310121309e-01 -1.6242294672402205e-01 0.0000000000000000e+00  1.6537463735265451e-01 -1.0451502341864831e-01 0.0000000000000000e+00  1.6745560699025466e-01 -5.0541461866594639e-02 0.0000000000000000e+00  1.7034688430936179e-01 -8.6362669628547110e-03 0.0000000000000000e+00  1.8059997771141906e-01 4.3624052244288676e-02 0.0000000000000000e+00  1.8832471722656763e-01 1.0773364307461678e-01 0.0000000000000000e+00  1.6929436287111782e-01 1.8535178774951275e-01 0.0000000000000000e+00  1.2135522631212123e-01 2.5437059455247751e-01 0.0000000000000000e+00  4.6051878702070372e-02 2.8824970902943597e-01 0.0000000000000000e+00  -3.1589484110988456e-02 2.7904722329244280e-01 0.0000000000000000e+00  -9.3838182691449612e-02 2.3564316260179952e-01 0.0000000000000000e+00  -1.3133971731580965e-01 1.8175231737428021e-01 0.0000000000000000e+00  -1.5755487731120529e-01 1.2584961562850105e-01 0.0000000000000000e+00  -1.7063505789136932e-01 8.0384404454410488e-02 0.0000000000000000e+00  -1.9159485654642755e-01 3.8341538742078997e-02 0.0000000000000000e+00  -2.1459816121682274e-01 -1.5400310356486766e-02 0.0000000000000000e+00  -2.3909403133074081e-01 -8.9846060289809460e-02 0.0000000000000000e+00  -2.4479351077683484e-01 -1.8052889262868527e-01 0.0000000000000000e+00  -2.1149487915721984e-01 -2.6255992209717494e-01 0.0000000000000000e+00  -1.4431256793628675e-01 -3.2607496574941136e-01 0.0000000000000000e+00  1.4802999413178562e-02 3.7838012189265247e-01 -4.5070759291317891e-01  5.6838656842179591e-02 3.3010017305825468e-01 -4.9329192360411478e-01  -4.3743706844340653e-02 3.2544524367037769e-01 -4.9039747289106639e-01  1.8156531663017023e-01 -3.6700678965066053e-01 -2.0410645194577567e-01  4.1207763669357592e-02 -4.3585545702574480e-01 -1.9651893786403637e-01  9.4265136371067593e-02 -4.0701589940541344e-01 -2.4952831553480154e-01  2.6696232553607913e-02 4.9239658325450358e-01 -2.1525701491366023e-01  4.4064390372834106e-02 4.9242522662678556e-01 -1.7410154780567713e-01  1.4889398879342905e-01 4.6308872954180436e-01 -1.8844667345648752e-01  3.3990949924951452e-01 1.1282771209769828e-01 -1.2668285123739861e-01  3.5731984142647566e-01 4.3250360499885645e-03 -1.0273074873545908e-01  3.6595946044240696e-01 1.7446189490981014e-02 -1.3848944186871617e-01  1.2347404375378292e-01 4.6447336055926403e-01 -1.5230817271133451e-01  3.3623235445317329e-01 9.4452853339075091e-02 -9.3136745944838437e-02  2.1659386248474183e-01 3.4598120269162835e-01 -4.3210640591793782e-02  2.4902045484804808e-01 3.1367977268776409e-01 -9.5389392600472883e-02  1.6887851621277569e-01 3.9900589910230533e-01 -8.7230385239248365e-02  -2.0255066009532652e-01 3.1913824781583311e-01 -3.2915559765279566e-02  -1.0702301857719095e-01 3.9202256506424338e-01 -3.4778592053624352e-02  7.0432924714778550e-02 4.5608258624231668e-01 -1.1211694659171927e-01  -2.9775020147755578e-02 4.3273679043177427e-01 -7.1225543157605861e-02  9.3379115754076883e-02 4.2917289047495405e-01 -5.3033886450866062e-02  1.0184671845024137e-01 3.9443371126750459e-01 -4.1251511345991837e-01  -3.7368883478009596e-02 1.5817320325224207e-01 -5.5920864581033725e-01  1.5164025661741524e-02 2.5330421834969269e-01 -5.4060283831483757e-01  4.0656430028423056e-02 1.6626774043176157e-01 -5.6306764268387777e-01  3.6860460171171711e-03 4.3105120392962837e-01 -2.9378056261025538e-02  -9.1420580348587577e-02 4.2564875181584538e-01 -3.0561760148921202e-01  -1.7685459489526770e-01 3.2410230263065470e-01 -3.3832360942738465e-01  -1.4782120102130558e-01 3.8317701461568332e-01 -2.7921758295308030e-01  -1.5795116765676498e-01 3.8098025384342504e-01 -2.2595432927926321e-01  -2.0940590629871392e-01 2.9252811784236898e-01 -2.8539546063773813e-01  -2.4377417824184994e-01 2.3574373274484481e-01 -2.4683029114559654e-01  7.8944362713936220e-02 -4.3576860482134744e-01 -4.6614827284807023e-02  1.2325351032325832e-01 -4.0136421990861809e-01 -1.1026868603272709e-01  2.0651978232111615e-01 -3.4963425328462033e-01 -6.5231106340332218e-02  -3.3838464960322762e-01 -2.3913746338418107e-01 -4.0443620539684050e-01  -3.1336905139574367e-01 -3.1805323328241902e-01 -3.7988119093445427e-01  -3.6492346232375505e-01 -2.5171979669862304e-01 -3.3978377751113781e-01  -2.6235787601456778e-01 -3.3135789824051065e-01 -4.2566190003122206e-01  -3.5453516621158238e-01 -3.0745283860861333e-01 -2.6569033515381446e-01  -3.8628393408243861e-01 -2.1521898147959553e-01 -2.2724681663089408e-01  -3.8339051569264143e-01 -2.3204695491442862e-01 -2.8478565239895126e-01  -3.4590040876110772e-01 -3.1253186795260940e-01 -2.2088277867548070e-01  1.9846600634433520e-01 3.9463105843703772e-01 -1.3067745082786777e-01  2.9110970557743965e-01 2.5459398526098787e-01 -1.2782996970987234e-01  -3.8184326511644417e-01 -1.2370474172702006e-01 -3.0372340318172902e-01  2.3878504348951857e-01 -3.2296874217943400e-01 -1.4628115314894907e-01  -1.2951571105211651e-01 3.8359606344222169e-01 -7.1420655630257207e-02  -3.6657106541624895e-01 -1.5199696765128429e-01 -3.5790874431350606e-01  -8.3922433201213606e-02 -4.3507049019672167e-01 -2.9338934305751579e-01  -5.2194401751237261e-02 -4.2069190126531641e-01 -3.4045847038098104e-01  2.2671133666601295e-02 -4.1983549345893634e-01 -2.9750048194825657e-01  -1.5677519291552830e-01 -4.1423334609808965e-01 -3.5038066727774397e-01  -3.2789572904346571e-03 -4.5227552320425451e-01 -9.5698693916916697e-02  1.6320442163363549e-01 -3.6185779770500109e-01 -2.9981486072844354e-01  6.2936955140597994e-02 -3.9442221207237532e-01 -3.6143185133242478e-01  1.7923160363055041e-01 -3.3519467073993481e-01 -3.5634095344989586e-01  -2.7784510926478423e-01 -3.3943503881104042e-01 -4.8327198891339233e-02  -3.4026179195491241e-01 -2.2676541599421030e-01 -3.9274422583371792e-02  -3.2599286667002353e-01 -2.9715006543038630e-01 -1.1456839212005775e-01  -5.0507282290505891e-02 -4.6193253135747214e-01 -4.9083875879322753e-02  2.4445792734562669e-01 3.6696153991237301e-01 -1.6295049717755800e-01  2.4492242685095672e-01 3.7462805209644973e-01 -2.0089667089002805e-01  1.0654466456570071e-01 2.4414725423972894e-01 -5.3084756290641022e-01  -3.8883609397406188e-01 -1.3875354601863024e-01 -1.7714126708581557e-01  -3.6409616708321335e-01 -2.5727115848393317e-01 -1.7386757350731025e-01  7.3526986494180865e-02 -4.4761887011471768e-01 -2.9134676990130557e-03  -3.6220892668798166e-01 1.8523599074716606e-02 -5.5950492267002779e-02  -3.7402600435277666e-01 -4.1564277320143818e-02 -1.2063474983289332e-01  -3.7020347776943374e-01 -7.8179669549785571e-02 -8.5509862775790035e-02  -3.5016496961496807e-01 7.5739677217769294e-02 -1.0616053840099238e-01  1.9134722441040047e-01 -3.7234246614206506e-01 -1.2858200260323940e-02  3.3120546698322456e-01 5.2895783703781264e-02 -3.6607464490306572e-02  -5.3200129200185305e-02 -4.6149826226623042e-01 -1.5338578156376079e-01  -1.4630314872968420e-01 -4.5560819848207740e-01 -1.6004623329004489e-01  -8.4591405432670769e-02 -4.5701812505637818e-01 -2.0077082646261526e-01  -1.3575465536629400e-01 -4.5248151489062416e-01 -1.0659082624869028e-01  1.3240592469577214e-01 -3.9555112440957391e-01 -1.6368512107226443e-01  2.8640598702242137e-01 -2.4719876019865225e-01 -3.8414432986146489e-02  3.2122301786505969e-01 -1.4202619077887818e-01 -1.6158541189099127e-02  3.4257087777222978e-01 -6.3823742430717229e-02 -6.0119571481369309e-02  -2.2803268660281129e-01 3.0081540817183766e-01 -6.7301269470197086e-02  -2.8153807448484630e-01 2.1727504935486144e-01 -1.0105521628550800e-01  -3.0869222007405489e-01 1.8131907601184197e-01 -5.6982170866284231e-02  -1.7242117760255091e-01 3.5410484351549137e-01 -1.0667997817594983e-01  -2.7311334788232694e-01 2.3978438840541755e-01 -3.2016864935714345e-02  3.7634412090704850e-01 -9.2267027185001543e-02 -1.5069190544321279e-01  3.6582114823279988e-01 -1.7574739024821426e-01 -1.8673568500163468e-01  3.9191709781562428e-01 -6.3159257850536263e-02 -1.9593665577575897e-01  -3.1102320500546971e-01 -1.4199966617675638e-01 -4.4409300767208360e-01  -3.4418688706893263e-01 -1.2214739009354757e-01 -3.9684735732250975e-01  -2.8332676963567061e-01 -3.8483323952386111e-01 -2.5475335763882812e-01  -2.4473978087167716e-01 -3.9534701687025864e-01 -3.1632280810992225e-01  -1.8918316689733658e-01 -4.2679022473984174e-01 -2.7778223475730840e-01  3.2053995087198422e-01 -2.5293087800923258e-01 -2.5527282976065813e-01  3.5741168181279243e-01 -1.7706332318817214e-01 -2.7975538163888825e-01  3.7435650631490258e-01 -1.7714008895970168e-01 -2.2543000475048333e-01  3.3961418498388002e-01 -2.0381034188951877e-01 -1.3991221619711589e-01  2.8996811166061059e-01 -2.5719230139937332e-01 -9.4644616827187472e-02  -3.2128807511202961e-01 -3.3810051680508679e-01 -3.1890319016619800e-01  -3.3329724749317075e-01 1.2607751668035452e-01 -1.5320135736636266e-02  3.5098158677992208e-01 -1.3428743302249815e-01 -9.5342485927294565e-02  -1.2787407018698937e-01 -4.4897885784547831e-01 -2.3825752850541651e-01  -2.6506362512764184e-02 -4.4621671987640066e-01 -2.4223257549162910e-01  2.9257091334772189e-01 2.1930063601580568e-01 -3.7962441209525404e-02  -7.4099192663293678e-02 4.2681880261097010e-01 -1.1146281276960084e-01  -2.7669731825833599e-01 -2.4814739841213651e-01 -4.6311828774524205e-01  -2.3113772907402139e-01 -4.1784465091726203e-01 -1.4971694403030872e-01  -2.3496129349920150e-01 -3.9969956137465984e-01 -9.5367915942726436e-02  2.0911033862291417e-01 4.0855153424230140e-01 -2.5658702075758533e-01  2.8076771434767162e-01 3.1931009361142471e-01 -2.3540134852775474e-01  2.5861782216907281e-01 3.4016845386822359e-01 -2.8447344046764372e-01  7.8898168221204924e-03 4.7401576504752518e-01 -1.4413543186595701e-01  -5.9360730222136879e-02 4.6216368789326595e-01 -1.8499341934654906e-01  1.6151343071135593e-01 4.1595380288114187e-01 -3.3344958534740515e-01  1.0321555578175401e-01 4.6181574552925025e-01 -2.8211127188470875e-01  3.7779376464824527e-01 4.9202264390439850e-02 -2.3580997320402491e-01  3.7960687249646319e-01 -3.9877049125355606e-02 -2.8054121690297235e-01  3.5907775338746600e-01 8.7954853547848572e-02 -2.8153585591830554e-01  3.5742300304404689e-01 3.2824726784800771e-02 -3.3021187211718850e-01  3.1169144048977981e-01 1.4834387613237288e-01 -3.8450710684233375e-01  2.5118168833975230e-01 2.8448410141707448e-01 -3.9114714590785582e-01  3.2449632278293844e-01 1.9390067361356997e-01 -3.2194926152599684e-01  2.5263991284490644e-01 2.0297385824982961e-01 -4.4139347567909498e-01  1.2607920000116324e-01 4.1602223122204698e-02 -5.3076491865814446e-01  1.4380145234269792e-01 -1.0175555469937604e-01 -5.4755951806429326e-01  7.4181882730686363e-02 -3.8721149090940925e-02 -5.5002321806332721e-01  -6.7330204912727176e-02 4.6060918263839218e-01 -2.3802700555750320e-01  -1.6651136659904200e-01 3.6287688652266747e-01 -1.6612354307719324e-01  2.7481090485398724e-01 -1.7805807830442685e-01 -4.3302306118593720e-01  2.9148447268231015e-01 -6.1029983099707467e-02 -4.4910685244251308e-01  3.3179251375876118e-01 -5.7027317658584598e-02 -3.8918194147632851e-01  3.5278269606594265e-01 -1.1304971803563568e-01 -3.2965410989498151e-01  -1.0015061984046821e-01 4.2266777725190957e-01 -1.4662445778874042e-01  3.9336911634881200e-01 -8.1144386324322901e-02 -2.3487109320419625e-01  -1.1630286538430035e-02 4.4907528039717243e-01 -3.2858722891873265e-01  -5.8545183234837185e-03 4.7569240929691048e-01 -2.7038582031183717e-01  3.2860917962292208e-01 1.8149680352305403e-01 -1.6283885326173239e-01  -3.6528866033636015e-01 -1.5885597783397994e-02 -3.7869544885550197e-03  -1.6159178673007396e-01 -4.3804272850413700e-01 -4.0618622677059284e-02  -1.7483117680649574e-01 -4.4468348616851755e-01 9.6875798488138699e-03  -2.5128762435515395e-01 -3.7871359192016224e-01 1.1514073037108411e-03  1.9605314044407317e-02 4.2368798174974959e-01 -3.8916941324885551e-01  -8.5487194854693582e-02 -3.8435937350351579e-01 -4.4689074498977455e-01  -1.8360782589303443e-01 -3.4230716354064850e-01 -4.6415780522131578e-01  -1.0483774179731079e-01 -3.4662186569383796e-01 -4.8223881989180639e-01  -1.7002739170730344e-01 -3.8691156411361605e-01 -4.1738698476709957e-01  5.2770070669765176e-02 -4.3225792345365449e-01 -1.4738017486006719e-01  -1.7507502834342381e-01 2.3320074268825064e-01 -4.6068892116157001e-01  -1.5371900497727808e-01 1.5267389702586537e-01 -5.1791843500443568e-01  -2.1501573040014099e-01 6.6596292281287425e-02 -4.8500493260206456e-01  1.7475949121076395e-01 -2.8139726995599074e-01 -4.6311137229376814e-01  7.6644109508121838e-02 -3.5137250924140828e-01 -4.5987104416674190e-01  6.3709215001640396e-02 -3.0575385495162005e-01 -5.0210421465295441e-01  -2.3502854152357405e-01 2.7507570416613614e-01 -1.3446958141812196e-01  1.2879812688300166e-01 -3.4935045908615908e-01 -4.1363811555480012e-01  -1.8026921290210815e-01 -1.3576526286023213e-01 -5.3068589938804445e-01  -2.1283306351226017e-01 -5.8092473198907139e-02 -5.1131235854194190e-01  -1.6081879767144783e-01 -5.6739706119250714e-02 -5.4341715667242674e-01  -2.9498872406316501e-01 1.6376355437970630e-01 -1.6435651169279045e-01  -2.4570346580178001e-01 -1.7272057533677432e-01 -4.9495120016315358e-01  6.6433244891044782e-02 -1.3471024887072677e-01 -5.5750252028354175e-01  -2.9984441118097965e-01 -3.6643141173211663e-01 -1.8443410771588858e-01  -2.0056331621721865e-01 -4.3478014458162595e-01 -2.0849496420925187e-01  -2.9629836010446098e-01 9.9877294248081672e-02 -2.9056393096069388e-01  -2.9688849314328508e-01 1.2304719399173117e-01 -2.3338724224148419e-01  -3.3815753362462131e-01 6.8885040492938513e-03 -2.8837309003154310e-01  3.7141948198343194e-01 3.1033850833697502e-02 -1.6586015920355276e-01  3.6469505398295948e-01 8.2560320389559363e-02 -2.0027840720692938e-01  -3.7483326251044241e-01 -1.8832269736780378e-02 -1.6173436522065640e-01  -3.3649934467780840e-01 9.6316375905646498e-02 -1.4508784729603036e-01  -3.5040368084791834e-01 2.8297195487167623e-02 -2.0100927089548098e-01  -3.6665086169809696e-01 -1.0064877106618783e-01 -3.4633442568663103e-02  -3.5989255743934140e-01 -1.7275558546337985e-01 4.3947478753765265e-03  -3.5857879522562774e-01 -1.7876123856311685e-01 -8.0990237939593687e-02  -3.7276995059583462e-01 -1.6584880949761877e-01 -1.2821117070852642e-01  1.0581600358621733e-01 1.3910522553573576e-01 -5.4668912343551923e-01  1.8181150747191355e-01 8.1595357685740069e-02 -5.1925600869947719e-01  -1.8188255979149470e-01 2.4466647106651012e-02 -5.2141666074017734e-01  1.5847241857634695e-01 3.4253349904470298e-01 -4.3359808684187190e-01  -2.4446516664050094e-01 1.9903251300623892e-01 -3.3701016497649677e-01  -2.2898840148462765e-01 2.0661628607654528e-01 -3.7224759775100658e-01  -1.8776996637182974e-01 2.6674045941530977e-01 -4.0134469304845088e-01  -9.8103926425773466e-02 3.8563951646633438e-01 -3.7747077863859962e-01  -2.6657010430908262e-01 1.1075668716915085e-01 -3.7398297514589407e-01  -2.8653035195853627e-01 8.9657997019995994e-02 -3.4202239519505112e-01  3.0648845447380013e-01 1.8545248855551505e-01 -7.8548621534213076e-02  3.0131001816011010e-01 -2.7693175231306899e-01 -2.0836205549621112e-01  -6.6974685882496623e-02 -4.7250201139691250e-01 3.3594119240824621e-03  1.4239125426451560e-01 -4.0743388385621265e-01 -2.5623410717772913e-02  3.1941999589571440e-01 2.3036896913703889e-01 -2.0437708352649706e-01  3.3094874388630274e-01 2.0535865639100256e-01 -2.5685671828156270e-01  -3.1817348765099984e-01 -2.9461117878685156e-01 9.1544755638839036e-03  3.1677181408522403e-01 -2.5020235291534909e-01 -1.7058307600185285e-01  1.6923798029963213e-01 2.9069689402570859e-01 -4.6618643884024608e-01  2.3200532260119733e-01 -1.7637906469507372e-01 -4.8078592644743606e-01  1.3810028055253612e-01 -2.1197189441793721e-01 -5.2585265249354318e-01  -2.4994219744788984e-01 -3.7461220177518012e-01 -3.7358293119163621e-01  -2.6475024423086474e-01 -3.3576753905696213e-02 -4.6126963882715716e-01  -2.9935840954040582e-01 -4.5651859002000493e-03 -4.0228734884849032e-01  -3.5533235763492654e-01 -1.3885220153576116e-02 -2.5076030173881719e-01  -6.2467613971725421e-02 -4.0687041011383801e-01 -3.9531848494762739e-01  1.6831732807800211e-02 -3.8887895515296772e-01 -4.2765706926457525e-01  -1.1614505570433642e-02 -3.6160161825130582e-01 -4.7442364879243143e-01  -7.9547200434530785e-02 3.5688680610228962e-01 -4.4545146857528578e-01  -1.1370210165009041e-01 2.7203125916034609e-01 -4.9589969844696280e-01  -3.3723206008479478e-01 -2.8478459357731998e-02 -3.4600528907875427e-01  -6.2724558186856294e-02 2.5276129934880898e-01 -5.2774212895605865e-01  -1.8298694508466498e-01 -2.8199741892583452e-01 -4.9794738195887589e-01  1.3894811719714262e-02 -4.6429171728799357e-01 -1.9729811152935792e-02  -2.3915189437807929e-01 1.1944227845819404e-01 -4.1889830606037637e-01  2.3216651900521248e-01 -3.2976699443212693e-01 -2.5634268522975356e-01  -2.4425783986165453e-01 2.4038929976482518e-01 -1.8893148281281771e-01  1.8267581978056896e-01 1.6256203542011061e-01 -5.1128682731745578e-01  3.9307548503799850e-01 -1.4527743201388171e-02 -2.1377569871832730e-01  -2.5832048168445437e-01 1.8039154426398532e-01 -2.9613588283241449e-01  -2.6633086632261403e-02 -1.3546587147922243e-01 -5.6041643081936487e-01  -1.0116140201049442e-01 -3.9520884227905971e-02 -5.6614952719469036e-01  -4.3938413338376970e-03 -5.1080688542656176e-02 -5.6668413117508765e-01  2.8865627478331346e-01 -2.3846050834179197e-01 -3.5045334230665609e-01  2.6594612058801792e-01 -2.8751870616068526e-01 -3.0121372518471817e-01  -2.0751575001910660e-01 3.0261985477916520e-01 -2.1041258666039186e-01  -1.1234889760469860e-01 -1.3662605377700832e-01 -5.5348236676178730e-01  -7.0335532843941562e-02 4.3612419401393286e-02 -5.6693144667536011e-01  -3.8911418881359039e-01 -1.1078843260740602e-01 -2.3185230854428104e-01  3.0124811700210574e-01 7.0277310063289841e-02 -4.2762353219646287e-01  -1.3655912241322476e-01 4.1519665038556176e-02 -5.4885799181934170e-01  2.5550584670551019e-01 3.2190310083894069e-01 -3.3608698909506735e-01  1.9866487240805086e-01 3.6223904233362525e-01 -3.7497360656344431e-01  2.2623513981259893e-01 -2.8070698699785651e-01 -4.0192231078064428e-01  1.6611591114334465e-01 4.4733004041083463e-01 -2.2765758285106319e-01  1.8861441120581543e-01 -1.4476049632013274e-01 -5.2298633979123510e-01  2.4505069767639098e-01 -6.9233780705804049e-02 -4.9601034580847858e-01  2.0314797659459452e-01 -2.3597143876312645e-02 -5.2156371294707538e-01  1.7713133509452528e-01 2.37022202115833