<?xml version="1.0"?>
<VTKFile type="UnstructuredGrid"  version="0.1"  >
<UnstructuredGrid>
<Piece  NumberOfPoints="625" NumberOfCells="1871">
<Points>
<DataArray  type="Float64"  NumberOfComponents="3"  format="ascii">-0.007450832228869202 1.52571515831646 -1.105397784093583e-15  0.05313238156558821 1.873195504148841 -1.1603738973368e-15  -0.629203442749643 1.609434429080435 -1.105111253436088e-15  -1.19002740913564 1.420725366457364 -1.072182628032632e-15  -1.653799824682791 1.036150922379862 -1.125091119991057e-15  -1.875217790840913 0.4765590541679461 -6.520327629373603e-16  -1.83289917151097 -0.1257418017092025 -6.581034760665336e-16  -1.543229093495234 -0.665835348358103 -2.06756072072338e-16  -1.079182057204321 -1.073986519325932 -2.149468472415556e-16  -0.4930856690687196 -1.283548473796 -2.141869809873723e-16  0.131929731225327 -1.220828489508352 -2.264335534152473e-16  0.7164941143049921 -0.977626195522024 -2.319158585869341e-16  1.176036880803469 -0.5625545598545755 -2.46589535492412e-16  1.42987467136021 -0.02152594371684807 -6.758039228304228e-16  1.41765241982154 0.5658299288281199 -6.878402201387013e-16  1.105890066044776 1.0660125123213 -1.112314357891297e-15  0.6080168979507226 1.403422652256759 -1.111478479252592e-15  -0.5648976887020961 1.862025500020184 -1.096859153172481e-15  -1.153321410334772 1.711315745754288 -1.061412840951883e-15  -1.663823129393994 1.376856600839006 -1.049770084439458e-15  -2.074961936199606 0.9190770725689454 -1.081162922210248e-15  -2.3271319757399 0.3458488366495481 -6.221056470706898e-16  -2.397226609618348 -0.287418112332869 -6.42984748748492e-16  -2.234470105782302 -0.912824141858732 -2.934104014922181e-16  -1.869894866121958 -1.451686161274918 -2.232100058091114e-16  -1.37009933559873 -1.871321692710599 -2.204782017179952e-16  -0.7663552230308721 -2.124909431929069 2.1797006468095e-17  -0.117140896643253 -2.209419118090368 1.299417831352721e-17  0.5329657667758719 -2.124549132008371 7.752712570347338e-18  1.135237857463448 -1.869146530224945 -2.2191691324699e-16  1.662513574486917 -1.485364392651372 -2.142842220022236e-16  2.086305861860849 -0.9886104379120609 -2.043629323093434e-16  2.379838712249299 -0.4044538494750944 -6.833020300211764e-16  2.493420244592076 0.2485368570547669 -6.712194153582309e-16  2.328208086432192 0.8897962566510688 -1.122039005712502e-15  1.9124051436533 1.411480600242865 -1.111713213122522e-15  1.328782072114469 1.731945076388456 -1.102400433120356e-15  0.687213887332866 1.860449291254531 -1.098515861593094e-15  2.185649827130034 0.5760758921419477 -1.721745582721546  2.173210926558277 0.4755848418641016 -1.148100437181673  2.314276722112719 -0.114166588509122 -1.518270897270717  1.970547799927229 -0.6350232370873152 -0.9195806262734028  1.657198826372058 -1.274287352428858 -1.191652935427576  2.106247393417003 -0.7944078310729185 -1.486674893029492  -1.196551012920307 -1.478220129975464 -3.063302633401057  -1.452375773956214 -1.478645430788755 -2.203978357149272  -1.773462354805282 -1.020898753171363 -2.729103172011123  1.143920174991444 1.617386958307008 -1.2410666504473  1.520002167826575 1.386567264469014 -1.544199561697996  1.086792371307155 1.597653307371639 -1.820510878109841  -1.212772530571794 -1.552818903972865 -1.038640261824025  -1.697424426100241 -1.06017436772528 -0.8040028177111991  -1.679077771506728 -1.283853667928932 -1.516104452958812  -2.206467305995297 0.5499115655344623 -2.891646752521681  -2.192695876088262 -0.01982097518611661 -2.857191321301503  -2.274553666007569 0.2708665035000362 -2.271071981264926  1.462186937721548 1.384018883661678 -0.9493394867799432  -1.685475849125654 1.269807683429773 -1.95563691276233  -2.05205107560466 0.8248165041039547 -1.966654549559771  -1.939545684095761 0.9280826495791915 -1.286923836563479  -2.033839634948615 -0.7749829270128745 -1.267946125844471  2.126302478848567 0.02388059747411631 -0.9143539155088636  1.867182436885084 0.4554497830135575 -0.5490815734680652  1.83919325739372 -0.1359897500203707 -0.5099515808080661  -0.3920703292818022 -1.974508622068161 -1.788736639312517  -0.4112928856286514 -1.964313481616078 -2.443312151095377  0.1207032342918979 -2.043770465918847 -2.179594989953471  1.936278526185264 -1.177249438993033 -1.917261242371114  -0.9442739323142006 -1.759815611116139 -2.551676896532436  -0.5710204934933784 -1.823487802070705 -3.060158547606226  1.476817171106729 -1.556291686194925 -3.268238726863585  2.025177870708716 -1.016240797470177 -3.072113901734594  1.686421886209945 -1.449606151713121 -2.51278371081886  2.364957628738442 0.430028956879306 -4.152622901668045  2.329149175965593 0.6419881603768633 -4.965235363182464  2.123587709877522 1.057844000697616 -4.241637994769486  -2.080241136034174 0.09698177697575257 -0.5876577756181055  -1.95951859045372 -0.5114070596231052 -0.655818128999956  -2.179013010572814 -0.1877408429149717 -1.134658502360785  1.381287970120808 -0.9450355391996396 -0.4987668778737491  -1.776041426239967 0.6077553569464463 -4.362469336082413  -1.96625621790109 0.6305253010350689 -3.891059604084278  -1.771812960524127 1.084429865503992 -4.133904962207284  -1.551141224975605 0.3100281659933242 -4.737167272575195  -1.10937083732513 -0.02102755933073838 -5.237941419721284  -1.419784139661457 -0.2911243355430562 -4.52145889946886  -2.011866361521783 1.062499399649673 -3.360907381358023  -2.138815610750535 0.409398504340786 -1.187037008482345  -2.001729800723373 0.704879230454279 -0.6680170900805629  -1.701289427244431 1.277056516186895 -0.6285051789693799  -0.3471608718830769 1.960971045647613 -3.946713768009908  -0.4444365996431864 1.920422127113266 -3.036893346148772  0.2003084269121699 1.861147073305058 -3.382770174508321  0.165693242089817 1.806005432273696 -2.664705123762209  1.864121324732981 -0.9549411260406759 -4.393635329997111  1.350499137860536 -1.168981719097659 -4.775824167237579  1.698327788801389 -0.8235074179830844 -5.136932757150521  -0.8131048549702773 -1.804148951094352 -1.360490805574287  -0.7965994977156047 -1.561877311468046 -0.6161952043418736  -2.029309005519491 -0.8261607435699618 -1.995167620205628  -2.193416326940514 -0.4200589732741046 -1.613279955394257  1.415568363744214 -1.390212622451223 -4.095641376076575  0.4189752158837567 -1.798103642632173 -3.73214463261532  -0.1295034278938731 -1.808319159879632 -3.588430476300577  -0.07049856313116049 -1.542553104751314 -4.245096646808981  0.2911517547560393 1.881636395641693 -0.7064760559788666  0.8803757094879104 1.696960881117558 -0.7467668902166846  0.5525138804641629 1.817209726137541 -1.361231823891763  -0.8716947512248229 -1.823290914884507 -2.00168985897708  1.859182754481632 1.072064363835183 -1.80217618441106  2.023039703960943 0.8191990564013976 -2.425095311374064  -1.61581808808524 -0.9975940545020969 -3.265415721537782  -1.931093506211419 -0.5754584746525305 -3.136065329735816  -2.139878964093066 -0.4414186698470756 -2.490604067776499  1.894639100324572 1.011412735077382 -1.173358469812438  2.303185600622478 0.07950056401529504 -2.338575999639051  -2.246616731860044 0.01868791179048403 -1.695320264491293  -2.163034047419121 0.5001991600250318 -1.687453775492009  -2.235963907918964 -0.3048792434249858 -2.049474739101559  1.580201988568909 0.9342486349172769 -0.4575918485924965  0.0821968192215161 1.796723480099351 -1.934835310981806  -0.5032746514013741 1.785162977482645 -2.214334406205692  -1.256436321399662 -1.619760501338657 -1.631769828144382  -0.182901777206208 1.901814916990699 -1.334048148729505  -0.2745377612116501 -1.896891847842748 -1.115650533777817  0.7441094854575339 -1.537125816934447 -4.367832455335267  2.227843380314416 0.727908530358258 -3.699992790440104  -0.6609352184117825 -1.584561566376094 -3.711148091055836  0.5842458542620804 -1.524971916646245 -0.6145875585200385  1.109941327366309 -1.327557781263938 -0.67502839649651  -1.279192930513347 1.652784572514656 -0.8157137702339392  -1.586636900885499 1.37006101932938 -1.235347131939852  -0.06422381993398124 -1.641423246076101 -0.5864843366291278  0.04170906127363929 1.798847568700788 -5.332630996698315  -0.5638662196726322 1.663650815474754 -5.301602685194322  -0.2912363762604623 1.914736699734669 -4.784306498794141  -0.2863671860127344 -1.049013417112487 -4.925904219964779  -0.7298157615551329 -1.197932303682527 -4.317412167983079  1.18448071876942 1.404924092536487 -0.4884646829530765  0.6805228311916889 -1.967041006155857 -2.547301203766363  0.5903313332590995 -1.997580818711409 -1.896308732657189  1.140552612283489 -1.827058294135856 -2.225769247771352  -1.975317793377346 -0.1856327263982663 -3.486399800675726  -1.629394072260779 -0.6099325755886668 -3.800298608941811  -1.193856215719183 -1.182694003810024 -3.744724263750504  -2.133726075692985 0.3354652310405211 -3.441208463574104  -1.309891611710656 -1.21854324725661 -0.4797054903070501  -1.151646827021362 1.752225672911837 -2.752831243768708  -1.088322387808218 1.407018289037312 -5.122453714429319  -1.306872739387846 1.541536805065783 -4.425368689037219  -0.7961683945914945 1.80178356654103 -4.620777642539295  1.559586486207386 1.287509684173218 -2.241485502323001  2.254036918238581 -0.5898843419693303 -2.110373760168323  -0.3772809575466888 1.926776494827861 -0.5923322257997146  -1.207038332593017 1.611678554137056 -1.434420890935011  -2.05512586648261 0.9572593301808349 -2.546118935006826  -0.9612718025290838 1.8341980319878 -4.015671492920269  0.06954386299905882 -2.016791608048806 -1.62658346324889  -1.231787703519803 -0.8171990166116729 -4.248898545629707  0.4519390906703099 -1.881568268836153 -1.191683824405775  0.9766932405538076 -1.862724336614246 -1.639115149364392  1.471695855747493 -1.617704707177435 -1.83567303528917  1.11385002344535 -1.666112538705073 -1.153780708444474  -0.4969220131392257 0.8183776353302492 -6.246740367260351  -0.2484603965239247 1.197162930746434 -6.23192625245346  -0.06842730786034526 0.8555321321433854 -6.641755383945784  -0.8606169460804223 -0.6528576276296694 -4.931172708350261  -1.6858811
[...]
<PointData  Vectors="f_3762361-0"> 
<DataArray  type="Float64"  Name="f_3762361-0"  NumberOfComponents="3" format="ascii">2.7610504958591225e-02 4.5364131378970252e-01 0.0000000000000000e+00  2.4248968618662832e-02 4.2641481107692419e-01 0.0000000000000000e+00  -6.8818771605804699e-02 4.3498835151325738e-01 0.0000000000000000e+00  -1.7121044314738187e-01 3.4881421859511430e-01 0.0000000000000000e+00  -2.2365759761179621e-01 2.2233668426169487e-01 0.0000000000000000e+00  -2.5432958143181839e-01 9.2955592022355343e-02 0.0000000000000000e+00  -2.6501240657421760e-01 -3.9419711497351843e-02 0.0000000000000000e+00  -2.5469039011889422e-01 -1.7508959659574411e-01 0.0000000000000000e+00  -2.0864238721791531e-01 -2.9616429469803418e-01 0.0000000000000000e+00  -1.2644615771222467e-01 -3.7804439786477784e-01 0.0000000000000000e+00  -2.6853798089860905e-02 -4.0064130709188617e-01 0.0000000000000000e+00  5.8984784628633838e-02 -3.5485339180135222e-01 0.0000000000000000e+00  1.2033114687753911e-01 -2.5242601288462135e-01 0.0000000000000000e+00  1.5443671827226108e-01 -1.1234324974154497e-01 0.0000000000000000e+00  1.6690648748570994e-01 4.2434959173902241e-02 0.0000000000000000e+00  1.5509109023772102e-01 2.0648845866001028e-01 0.0000000000000000e+00  1.0578321573794026e-01 3.6169220823641379e-01 0.0000000000000000e+00  -7.5997892808815401e-02 4.1451700697513577e-01 0.0000000000000000e+00  -1.5790951815818893e-01 3.3750893181483688e-01 0.0000000000000000e+00  -2.0448111640503611e-01 2.2950621628916018e-01 0.0000000000000000e+00  -2.1634186724373461e-01 1.1546195092893718e-01 0.0000000000000000e+00  -2.0711186012234323e-01 2.0114278348617180e-02 0.0000000000000000e+00  -1.9160442279650441e-01 -5.3941497540985449e-02 0.0000000000000000e+00  -1.8425481491336890e-01 -1.1594357562667677e-01 0.0000000000000000e+00  -1.7487542730658626e-01 -1.8247834260784923e-01 0.0000000000000000e+00  -1.4663408656506255e-01 -2.4555628465420565e-01 0.0000000000000000e+00  -9.8910539101985648e-02 -2.9071433216842152e-01 0.0000000000000000e+00  -4.2724066580197576e-02 -3.1254510174242844e-01 0.0000000000000000e+00  1.7751601744469468e-02 -3.0284963619816474e-01 0.0000000000000000e+00  6.7877689600977509e-02 -2.6226677981069652e-01 0.0000000000000000e+00  9.6018781544230533e-02 -1.9740664525395762e-01 0.0000000000000000e+00  9.9575130242068793e-02 -1.2586217842928396e-01 0.0000000000000000e+00  8.6029598931602835e-02 -5.8563907224484214e-02 0.0000000000000000e+00  7.4871605326206903e-02 -1.4916148772785008e-02 0.0000000000000000e+00  8.5055704377949834e-02 2.5856762603748952e-02 0.0000000000000000e+00  1.1206083301611308e-01 9.4337803677956203e-02 0.0000000000000000e+00  1.2765891986956601e-01 1.9925283173644906e-01 0.0000000000000000e+00  1.0174727425071592e-01 3.3098347482716234e-01 0.0000000000000000e+00  1.8557293183260606e-01 7.8591511813480203e-02 -7.0646124189728599e-02  1.6640246356405783e-01 3.6791976071314826e-02 -2.7077699585259709e-02  1.7251034134179560e-01 -4.1248202728146319e-02 -5.2466838451893212e-02  1.5631140508166955e-01 -1.4766436908175110e-01 -6.1210309789260344e-05  1.3503039182884660e-01 -2.4060039698897537e-01 -2.4309885999020904e-02  1.6508320968466006e-01 -1.4767491635520721e-01 -4.7724999334263177e-02  -1.9342846845942666e-01 -3.1347733435926994e-01 -2.1756611067673734e-01  -1.9996756509252608e-01 -2.8365059285166044e-01 -1.4169205442426847e-01  -2.3228422476867111e-01 -2.3186184301235760e-01 -1.8640535660217114e-01  1.3465280295880050e-01 2.9847271017077293e-01 -5.5050289466039640e-02  1.6205148526264510e-01 2.4852608435732168e-01 -6.9638243368289401e-02  1.3724904236213911e-01 3.3505500388389037e-01 -9.1707581509650943e-02  -1.7867099732996325e-01 -3.0305239309972598e-01 -3.4339708181248541e-02  -2.2427282443286020e-01 -2.1180099973045424e-01 -1.6410661053054946e-02  -2.1027073053930068e-01 -2.3765934823315313e-01 -7.9707587626948379e-02  -1.9728935750832907e-01 9.1259622621310960e-03 -1.6316439884617942e-01  -2.2731914380970414e-01 -7.9733318896786989e-02 -1.7671896642835327e-01  -2.0835670330114048e-01 -7.7106676753432857e-03 -1.2921381443723462e-01  1.5337934393485278e-01 2.2134046482379813e-01 -2.6305537025020972e-02  -1.5417065773472552e-01 1.9281374761642486e-01 -1.0040845835661884e-01  -1.8590743367268597e-01 9.8576516109042972e-02 -1.0308745644090825e-01  -1.9234591032244244e-01 1.3045755609591331e-01 -6.7769523678747653e-02  -2.2577905603391848e-01 -1.4524293910145708e-01 -5.8349235352568453e-02  1.6507388848460292e-01 -4.2767847742632210e-02 -3.2726496312273910e-03  1.6733577107129491e-01 2.4591361266368867e-02 1.6671469448007320e-02  1.6565931706078033e-01 -8.7658290666524877e-02 2.4812015895847118e-02  -9.1757287964655654e-02 -3.6161197984008309e-01 -9.7306127295546288e-02  -9.5571050561607404e-02 -3.6379129999866239e-01 -1.5582588759409438e-01  -3.1852432615832066e-02 -3.6622953774829914e-01 -1.2876450666632289e-01  1.6314720938370933e-01 -2.0112981482017939e-01 -8.3729343610212392e-02  -1.5659108273472164e-01 -3.3729075661360880e-01 -1.6994222480723406e-01  -1.2009232361257566e-01 -3.5605324467452032e-01 -2.1057415962042317e-01  1.3123331831425947e-01 -2.6431296675511440e-01 -1.8269170500579759e-01  1.8772332526808586e-01 -1.6661990493482046e-01 -1.5168426167648480e-01  1.5270397795565996e-01 -2.4746634230142542e-01 -1.3143411268280372e-01  2.1041987934900275e-01 6.5678685684606553e-02 -1.7008393674357369e-01  2.0243588313207736e-01 9.0581952612907024e-02 -2.0529508959228981e-01  2.0756729170745764e-01 1.7971561110112153e-01 -1.6995691572636781e-01  -2.4053536073391207e-01 -1.5485808458247105e-03 -9.8444630855455614e-03  -2.4254437991545447e-01 -1.1339704937046387e-01 -7.7582632739256214e-03  -2.2766227485806395e-01 -4.9955153562400927e-02 -4.8153722528258044e-02  1.3612436107312795e-01 -2.5513167268225634e-01 2.6403014741638593e-02  -1.8365513914256865e-01 -3.1755507343246850e-02 -2.5459970424474049e-01  -1.8982257292630098e-01 -1.5854409850303744e-02 -2.2691020497961148e-01  -1.5289368294924863e-01 5.4503776917763896e-02 -2.2058161679294938e-01  -1.9202939063462945e-01 -8.7291371786055283e-02 -2.9250198677969924e-01  -1.7999465967097139e-01 -1.4497502746781071e-01 -3.3724093609867789e-01  -2.1870548536070011e-01 -1.8271438663239442e-01 -3.1273603716312970e-01  -1.6344114941041424e-01 7.0623715745510726e-02 -1.7869709106715692e-01  -2.1617368514283650e-01 4.4452250993908912e-02 -5.5497141456736662e-02  -2.1945402974901909e-01 9.9540795624225908e-02 -2.3503893035703150e-02  -1.8626592918309473e-01 2.0195721945343967e-01 -3.0761652393084590e-02  -4.7380161020472138e-03 3.4118015812019553e-01 -1.7771205779886218e-01  -6.6177012077015358e-03 3.6525824082542080e-01 -1.3323312254205144e-01  6.7281244054354220e-02 4.0551832307678953e-01 -1.4185805413794345e-01  5.9351589427725400e-02 4.0943218969381151e-01 -1.1947975493826896e-01  1.6513521154890903e-01 -1.6995594346721854e-01 -2.2967348441680208e-01  1.0810771049580123e-01 -2.3541173132041257e-01 -2.7465294586712857e-01  1.4230197040318868e-01 -1.7542940047741035e-01 -2.6471207304624478e-01  -1.3738767894719442e-01 -3.4234166628432766e-01 -5.9791161656188675e-02  -1.4371172749813413e-01 -3.5423537911458525e-01 3.3343718552886520e-03  -2.2782901268593564e-01 -1.7009982837049706e-01 -1.2119346425439834e-01  -2.2434249918259491e-01 -9.3220689206478552e-02 -8.6761881604754745e-02  1.1937404861571697e-01 -2.4806514347807671e-01 -2.3747312559427891e-01  8.1310659991394097e-04 -3.3824598715370591e-01 -2.4601513786302248e-01  -6.8489599493346570e-02 -3.5384994566178901e-01 -2.4727049442827789e-01  -6.9930510540153423e-02 -3.3576688175683478e-01 -2.9929324748773273e-01  5.6686946150336842e-02 3.7851526909962657e-01 -2.6067597820646601e-02  1.1443857728188711e-01 3.1779314533442443e-01 -2.0213644067512689e-02  8.2089896637825677e-02 3.7141968304725209e-01 -7.1634880042950891e-02  -1.4500017701846815e-01 -3.4069484098102182e-01 -1.1978997684530730e-01  1.8220384384637317e-01 1.8568194623167433e-01 -7.9954735458470705e-02  2.0395317329532450e-01 1.5906016302413439e-01 -1.0616955801628956e-01  -2.3253513310407495e-01 -2.4936567753992064e-01 -2.3349658479003535e-01  -2.4375059201828403e-01 -1.7858698947787041e-01 -2.1446136190443649e-01  -2.3322343186623648e-01 -1.2954738335811855e-01 -1.5868491605255095e-01  1.6699753390069802e-01 1.3578945859500446e-01 -3.5215932350387454e-02  2.0366376416583060e-01 1.5522166451203958e-02 -1.0154407322499572e-01  -2.1785598827424751e-01 -2.5693144284156047e-02 -9.0923050745800787e-02  -2.0565513815504080e-01 4.9707426234040585e-02 -8.8895193828375033e-02  -2.2451979800905136e-01 -8.6767459752848816e-02 -1.2135941811497708e-01  1.6683396713758369e-01 1.3326256529068181e-01 1.8287649961556521e-02  3.8526659706739970e-02 4.0146405416706471e-01 -1.0180268984261905e-01  -2.4820271244755738e-02 3.7065115624162581e-01 -1.0657056231205120e-01  -1.7861539799224072e-01 -3.0179198251785749e-01 -8.8534694179964596e-02  -7.3492587453425446e-04 3.8135308775087906e-01 -7.7588253457591030e-02  -7.6199852732344836e-02 -3.6934004108149843e-01 -3.3268439703603700e-02  3.7162371117514276e-02 -3.0072754825129266e-01 -2.8012110457205164e-01  2.1469381371079677e-01 1.3066413326031703e-01 -1.4492054539761792e-01  -1.4008970313151717e-01 -3.3954207002019615e-01 -2.6721970377221915e-01  4.1936226427148754e-02 -3.7218214942753852e-01 1.7477267942356777e-02  1.0092635435992639e-01 -3.1354078861947071e-01 1.5825677966900615e-02  -1.3863612151774798e-01 2.7768448971915111e-01 -4.9363636833831451e-02  -1.6050163627165798e-01 2.1693588294656627e-01 -7.2311802482920226e-02  -4.6133261606555481e-02 -3.9272700458004600e-01 1.1886561897348392e-02  -5.1250236967487345e-03 2.7705729292339915e-01 -2.5469548305129602e-01  -6.3137898406243939e-02 1.9305158595214983e-01 -2.5703314559780016e-01  -2.2816001002954001e-02 2.8607406227694504e-01 -2.2659512823397990e-01  -1.1151523252875474e-01 -2.9968158555042229e-01 -3.4474407309000954e-01  -1.5973911447378536e-01 -3.1211241528510253e-01 -3.1800205089736511e-01  1.4389187932242492e-01 2.5199672777108451e-01 6.3642826200734932e-03  3.7982090422944814e-02 -3.4837731752261331e-01 -1.5291571911468207e-01  2.2761161592341646e-02 -3.5160991822696835e-01 -9.9543937966728432e-02  9.0360315397184726e-02 -3.1498709755365051e-01 -1.2191446251870655e-01  -2.3706347022557400e-01 -1.3289295606721219e-01 -2.3265638506674557e-01  -2.3809799982469421e-01 -2.1128639940945906e-01 -2.7247919757125638e-01  -2.0505093923264134e-01 -2.9438127702054778e-01 -2.7574583957492460e-01  -2.0854668180971331e-01 -4.6472165295177316e-02 -2.0737954935922887e-01  -2.0874527865218168e-01 -2.8210832105310146e-01 6.8021706509709288e-03  -8.6655396701993848e-02 2.7916984871700684e-01 -1.2646759338200125e-01  -1.0277696407603602e-01 1.1136237932705055e-01 -2.5335398077513976e-01  -1.1116756782817948e-01 1.4610556784664808e-01 -2.2020477648733924e-01  -6.8238895988185611e-02 2.2620371286777610e-01 -2.2140404704345162e-01  1.7981897581945366e-01 2.7318536491800766e-01 -1.0430139945688995e-01  1.8919327672931216e-01 -9.8738668070654442e-02 -9.2014845299306508e-02  -2.7648942312850120e-02 3.8530019027865636e-01 -2.8985557413466635e-02  -1.1867429625472815e-01 2.8263685197842625e-01 -8.3872708120967185e-02  -1.7588213899883726e-01 9.3872886291989699e-02 -1.3311674601143875e-01  -7.1782379558557666e-02 2.4848939968369754e-01 -1.9174411486862131e-01  -3.7899669822695554e-02 -3.6558658501930341e-01 -7.8322531850308214e-02  -2.1218258524892011e-01 -2.5670413732630831e-01 -3.1070262229687706e-01  9.8329363284396648e-03 -3.6313273225329773e-01 -3.2672009721043678e-02  6.5263449200949356e-02 -3.2600155328515695e-01 -7.3339479587462494e-02  1.2070961925691669e-01 -2.7661883139036958e-01 -8.4766778584431837e-02  8.3045228005136737e-02 -3.1434608350124793e-01 -2.6170748100097122e-02  -8.9724200882444455e-02 2.5851914131385018e-02 -3.0871169477497729e-01  -6.6204920448268742e-02 1.0895843748059880e-01 -2.9306629042773907e-01  -6.2400458552716864e-02 4.8611029711409105e-02 -3.0643104433232660e-01  -1.7772606157611404e-01 -2.4662503738092761e-01 -3.4709914627757971e-01  -1.3975520286350107e-01 1.8345589874046325e-01 -1.2930607729431609e-01  -1.0064430230058267e-01 2.8485036018124876e-01 -1.0520162548585248e-01  -9.3532135986050521e-02 8.4157880459732784e-02 -2.8393471510280649e-01  2.1514837167550063e-01 1.5617869733568951e-01 -1.2359047662610234e-01  1.9866726080615635e-01 2.6948623226124707e-01 -1.2307853013953141e-01  1.4019373371141286e-02 2.5784374514487057e-01 -2.7232009401692664e-01  -4.5602610233300568e-02 1.8907653613557010e-01 -2.7824488919238705e-01  -2.4163133865324673e-02 1.5691141863873084e-01 -2.8892747291588472e-01  -1.0550880481706516e-01 3.4834379978867835e-01 -2.3921739754602094e-02  1.2813601134311242e-01 3.9903013325175346e-01 -1.2751605344620998e-01  1.6973288244210660e-01 3.4443767120574809e-01 -1.2060001105986885e-01  1.3389692919827426e-01 3.7791568133450726e-01 -1.1414833103079368e-01  2.1043510274876021e-01 2.1376379134789480e-01 -1.3791112830293989e-01  1.8708563375406775e-01 2.9942064240345162e-01 -1.5054563047283975e-01  -6.6766851882327255e-02 3.4594039999017673e-01 -9.0998990983776701e-02  -7.7539402919553593e-02 3.3994700895276270e-01 -6.5420701199310677e-02  1.6672567237032210e-01 3.5726875787221285e-01 -1.3227233801162652e-01  1.2191479427322029e-01 3.8791520571024757e-01 -1.5740863106794450e-01  -6.6135687647521091e-02 2.8142935670696878e-01 -1.6008342344042792e-01  9.2586560786437733e-02 3.9401849115655802e-01 -1.0519836702077472e-01  4.3468781251687150e-03 6.1207688532379831e-02 -2.9388044619656262e-01  -3.4352757385501483e-02 6.9409176945967280e-02 -3.0194948456054432e-01  4.1374787904461408e-03 1.2881275971115871e-01 -2.9294781049273438e-01  7.9144257628044765e-02 2.8759941452103144e-01 -2.6135672717853575e-01  3.8644745489901676e-02 2.1386646115712515e-01 -2.8443569054978690e-01  1.6587887574077559e-01 -1.9296117910649221e-01 -1.9664557605149791e-01  1.9419781946220294e-01 -1.2045916859152217e-01 -1.7990994442101346e-01  -1.2074147928534019e-01 1.5889399698226342e-01 -1.9003667435689348e-01  -1.4441602718247096e-01 2.1194197563151690e-02 -2.5615163168576360e-01  6.2871825742394138e-02 3.2585665821958026e-01 -2.4534554149389542e-01  1.2176306664396599e-01 -9.4135714367799564e-02 -2.9074702668838359e-01  1.2394662153138018e-01 -1.5325299851756094e-01 -2.8388254184653089e-01  7.5149969214128115e-02 -1.7331168724535878e-01 -3.1274681105708507e-01  1.0338624955721591e-01 3.5806920819126287e-01 -2.0719662427646726e-01  1.5094111218833448e-01 3.3842858168337148e-01 -1.8424917398279644e-01  1.3169720125621806e-01 3.1273279986431746e-01 -2.2990568681125750e-01  7.9793823022035318e-02 -2.3176454908310615e-01 -3.0017387187999484e-01  1.9503637117306999e-01 -3.0678783438091318e-02 -2.2059399131314311e-01  2.0834141164325809e-01 -6.2626515545874915e-04 -1.9406609654671234e-01  2.0349682385652784e-01 -8.3536484536194208e-02 -1.2083800198476118e-01  -2.2281466722508797e-01 -1.0987982211500694e-01 -2.6057719285303588e-01  -3.2308242009857172e-02 -3.6262591061589250e-01 -1.9325383954860420e-01  5.7880381850064805e-02 -3.2949850110290679e-01 -1.9806081379793969e-01  -1.2133522044369498e-01 1.8839204759204009e-01 -1.5788754178768760e-01  9.8928854531932425e-02 -3.1107029438067524e-01 -1.5856482754882600e-01  1.9705297106120712e-01 -8.7485835010285007e-02 -2.0424859215321389e-01  1.5902815906532930e-01 -1.7052571001936453e-01 2.6307154953800371e-02  1.7583537336471636e-01 2.7992807286059535e-02 -2.3689693188757427e-01  1.8183725209818594e-01 2.6580447000786950e-01 -1.9324308278262342e-01  9.2167161153857383e-02 7.1367950869361457e-02 -2.8190639000345846e-01  1.0460009278241138e-01 -1.2432346040504728e-02 -2.9734010845398884e-01  5.5149279776605935e-02 1.4783762570683874e-02 -3.0265210393436504e-01  1.7839123157019346e-01 -1.1238153823604881e-01 -2.3492799328493130e-01  -1.5628342793502822e-01 -4.9675985874089050e-02 -3.0082197185127468e-01  -1.2708995681198532e-01 -4.0658052300556538e-02 -3.1887357931288191e-01  -1.2394100194785181e-01 -2.3884372858454134e-01 -3.5712942353028537e-01  -6.7317860624395820e-02 -2.6301727959125032e-01 -3.4825170259277205e-01  -6.3010531645225909e-02 -1.8604088410948896e-01 -3.4822082509427071e-01  1.8468122155420867e-02 -1.3996938214683924e-01 -3.3472917943770270e-01  7.2707268413604621e-03 -2.3173269138328390e-01 -3.3097427109902927e-01  7.2035176434467788e-02 -8.6051323918308636e-02 -3.1984892055087683e-01  9.5800619063445322e-02 2.1738617808594529e-01 -2.7471594203142163e-01  2.0942058401568864e-01 -3.7534551468137313e-02 -1.6755766296628538e-01  1.4250588917218807e-01 1.8938402134085042e-01 -2.5549811650523158e-01  1.3100629443213210e-01 2.6259846739194803e-01 -2.4881945429283003e-01  1.7494290876896476e-01 2.1925914922668979e-01 -2.2385248794460261e-01  4.5608119473890166e-02 3.5708554049062363e-01 -2.0668255983879380e-01  6.3708499745005906e-02 3.9318541700479653e-01 -1.6465197671127532e-01  2.1535842995288990e-01 4.8441688858442064e-02 -1.4130180545040172e-01  1.4280102559186184e-01 5.4293547474706147e-04 -2.6787528570461117e-01  2.1060403092285945e-01 -4.1870374172053297e-02 -1.3692666905775949e-01  7.5613974876909684e-02 -2.9728612165355683e-01 -2.3398635429250492e-01  1.8748336391872755e-01 -1.5722189504949810e-01 -1.1940508741912817e-01  1.6441353125880062e-01 -8.3624674998709694e-02 -2.5279222381072353e-01  -1.7208264631526006e-02 -2.8509343237714091e-01 -3.3221749255231836e-01  -1.2443730211938901e-01 2.1950094352593985e-02 -2.8344604922877825e-01  -8.4180793910961088e-02 -4.4064580050876150e-02 -3.3204934457313973e-01  -1.2907987705306129e-01 -1.4348699501604978e-01 -3.5044616614649682e-01  -3.6967648015845789e-02 -3.1577185534912205e-01 -3.2156271933449082e-01  4.0562786680583815e-02 -2.7845663948785926e-01 -3.0871278617260378e-01  1.9848134748585050e-01 1.8616570941787539e-01 -2.0010369179603429e-01  2.7842802676675875e-02 -4.9888270511189395e-02 -3.2674679028355691e-01  -3.1867540499403220e-02 -8.8754574111834419e-02 -3.3955797730964521e-01  1.4771554901396683e-01 9.1625351139752856e-02 -2.5634463671150481e-01  1.7569364869719101e-01 1.4025944990627237e-01 -2.3295622908701577e-01  2.1579811130763188e-01 6.6514581124675121e-02 -1.1874360244656239e-01  1.1485858681830251e-01 1.4272220555305154e-01 -2.7482888336403954e-01  -2.5519616123820362e-02 -5.9047969801856205e-03 -3.2252798745505507e-01  5.7409799353034204e-02 1.4317786715795011e-01 -2.9050067692315673e-01  -1.5905248195613730e-01 -2.0384887199497204e-01 -3.5473265353846317e-01  -8.0671076542506576e-02 -1.1306838683848830e-01 -3.4542765983868307e-01  4.8520297784913416e-02 8.7396910337329034e-02 -2.8958406310322271e-01  -3.3618994020038345e-02 3.5528134139363016e-01 -8.1431012119058899e-02  -1.0399511198897124e-01 3.1062273801510609e-01 -9.0778800015408292e-02  -4.5605774192398259e-02 2.5943378901708181e-01 -1.0723759169183010e-01  -3.4400000142065082e-02 2.8744067459667350e-01 -1.0025037425822959e-01  9.7038913083297620e-03 2.8526134198136388e-01 -9.4161417236264422e-02  -8.2574146833000558e-02 2.5211367300987669e-01 -1.0979770307084263e-01  -1.6175263416889968e-01 5.0481419891679091e-02 -7.5548953116445272e-02  -1.7170395065820404e-01 1.1776220163561818e-01 -7.9190265506679597e-02  -7.8503921896013990e-02 1.9960663441940515e-01 -1.5178288100806026e-01  -5.4344902416766976e-02 2.4699848019727760e-01 -1.2071130276720081e-01  -4.3322036211415296e-02 2.5242166493519252e-01 -1.5308852957089142e-01  5.3754996143677299e-02 5.1694961187554435e-02 -2.7133049924404307e-01  6.9175691167714742e-02 2.8681853214829314e-02 -2.9058033923340298e-01  5.6622907316144486e-02 3.6757162500968922e-02 -2.9031706145522379e-01  3.8487088555402713e-02 -2.4802241305726005e-01 -1.4483344627502667e-01  6.8434014909860494e-02 -2.2186312198634126e-01 -1.6942319917682164e-01  7.4276951888735412e-02 -2.1580149551624808e-01 -1.2724611650763540e-01  1.3444957759414797e-01 9.0742096359789123e-02 -5.3836559