<?xml version="1.0"?>
<VTKFile type="UnstructuredGrid"  version="0.1"  >
<UnstructuredGrid>
<Piece  NumberOfPoints="606" NumberOfCells="1814">
<Points>
<DataArray  type="Float64"  NumberOfComponents="3"  format="ascii">1.614297199275288 -1.363522694149731 -4.290316988200046e-16  1.744197387200684 -2.473873700070247 1.768862520092374e-17  2.05909037759645 -0.730011093810968 -4.399496487721117e-16  2.256589259165893 0.01586241267480418 -4.478667727104282e-16  2.174208073600029 0.7826731999243177 -8.850804035666125e-16  1.795784812888264 1.454796411208912 -8.771068652952878e-16  1.225281736266861 1.988648995707952 -8.737943672942232e-16  0.4977727461604641 2.28765827874451 -1.360369487156643e-15  -0.2788244017133382 2.345601833233052 -1.324600516972172e-15  -0.9779412997344923 2.008854854072265 -8.816560324823067e-16  -1.509841672563579 1.432446002629098 -8.748900466380362e-16  -1.781863361235598 0.6947963893090618 -8.763049628776922e-16  -1.852706921316157 -0.0850494585899981 -4.31210097731001e-16  -1.674731085456776 -0.8335367836946896 -4.348245997372306e-16  -1.209835057172229 -1.438007498838747 -4.346845766672475e-16  -0.5481167600471002 -1.817027635834951 -4.376711730503167e-16  0.2078031720375018 -1.934272659952681 4.084690530300263e-18  0.9599023251886859 -1.779517862768108 -4.365745608175755e-16  2.391074027123823 -1.952343845687139 -4.253581300230564e-16  2.873708245157659 -1.281043780408299 -4.443021747407088e-16  3.180241688060592 -0.5093131192655304 -4.214338472050968e-16  3.265386189075303 0.3208820922131018 -4.40876791839127e-16  3.070228224877606 1.139328891795674 -8.842264631368026e-16  2.602774441080202 1.833985505994726 -8.718529531953515e-16  1.974511897523465 2.371699063329308 -1.311972657483693e-15  1.25385274725563 2.765994375587469 -1.312288134272382e-15  0.4821533195445024 3.045655942228558 -1.297053971021836e-15  -0.3453077555322012 3.159990246053554 -1.310400978086178e-15  -1.16393694285729 2.974338019039869 -1.304445901877232e-15  -1.87729809309792 2.529102243899757 -1.310099647303996e-15  -2.422105995466417 1.891855278709247 -8.574052971840166e-16  -2.764894139941692 1.130687695774172 -8.707690884950686e-16  -2.899497564687783 0.3072275864338351 -4.315814441131702e-16  -2.820771755815573 -0.5204782763572665 -4.425043984331555e-16  -2.515288580663461 -1.291575516817462 -4.363197721615565e-16  -2.031831718560414 -1.95991569808608 -4.370752931888674e-16  -1.406388892016844 -2.492673010172092 2.81520877687653e-17  -0.6547685045798129 -2.825972577712288 1.079274306926259e-17  0.1679947962425992 -2.910857627438226 2.057794505031141e-17  0.9820134376539499 -2.79159498677684 -6.24421206172594e-19  2.29075691040376 0.1408369410767453 -2.562084641945524  2.331796634528831 -0.3906185189633354 -2.180541214216734  2.120874213834394 -0.4616495242867049 -2.922561016957434  2.467169887830106 0.1448780272358623 -1.664084621172865  0.2449321133534835 -2.321090231897487 -1.483914320109206  0.5727339569777171 -2.074031640996787 -0.6590590339892179  -0.1284712133261101 -2.15572053236839 -0.7179902791489448  -1.375075508567103 -1.908912611069686 -2.979381803559962  -1.435110493538158 -1.833667799177841 -3.844411666551439  -0.6690428535465208 -2.267485230956494 -3.636595872467584  -2.087158123481489 0.2157068585356247 -0.852955824896191  -1.845464229930666 0.9742801603232222 -0.7848128342639493  2.3327487033849 0.9161004745307875 -1.459876169843485  2.410207923568434 0.5168983416130252 -0.7822393128967423  -0.9428088349756683 -2.056158512069032 -4.445038336545394  1.006178694499616 -2.126824589021334 -1.565305912005573  2.141011523581384 1.235586183426899 -0.7706669329772167  1.555779626220966 1.877846249476291 -0.9021958407798325  0.7277679834297696 2.279499157112231 -0.7922400086193235  -0.906609670534513 -2.003636768776269 -0.7460510383524741  -1.891310623809727 -0.03915879661866591 -5.961927524411435  -1.806375252337341 -0.5894687230406873 -5.626964845009407  -2.161590296035814 -0.04329673448844422 -5.15103615465286  -2.307118554337991 0.6008340617280493 -4.787946091091529  -1.973003954104387 1.177033471652853 -5.41680495654674  -2.059005213466549 0.5864032428160287 -5.689777337012384  -2.033996628035458 1.374279002957231 -4.607348749195024  1.869409962219336 1.561879500074772 -1.554805774183911  1.218127643812996 1.946008143407464 -1.913032195836047  -1.580553108702469 -1.521827400993827 -4.569523065961345  -1.99224538347738 -1.171774156727044 -3.90565056396996  -1.633173970478029 -1.689475036082659 -1.45909874532917  -1.392992154275257 -1.756678751423236 -0.8593147126958385  -1.774849148932633 -1.225106401392449 -0.7206910228482309  -1.203694590136131 -1.998758796342245 -1.312385009566677  -1.252954809069465 -1.997406093549553 -2.179401135024178  -0.6133961500522525 -2.288631319956393 -1.575855002862163  -1.916440952877933 -1.363261125498302 -3.134414902017175  1.206936337265032 1.949885864357277 -5.555634275943603  0.7286710992683821 2.033049991049306 -4.855645841689919  1.267625487218563 1.760716465917249 -4.580138625651807  -2.238339510414896 -0.3426813247173917 -1.385097416101043  -2.045650179710762 -0.5847497126969564 -0.7417084171605776  -2.073527910771386 -1.099667527342943 -1.628336525894531  1.865532044079214 -1.265379143005845 -0.5804674766222825  1.392407538337952 -1.765700669166423 -0.8565319917020351  -1.442286575204407 1.910618813798735 -4.192761392387862  -0.9500328093851106 2.0245138193872 -3.379330273208525  -0.5640218295089245 2.139105125514412 -4.146389971336561  0.7176617380248687 1.913881901472288 -4.03911034771517  -0.2351618925484322 0.09172471724805954 -9.172935642618285  -0.6221029105298636 -0.1322559080453078 -8.493498682122558  -0.5659020481034889 0.5685597637235946 -8.764557369492715  -2.363252659122682 0.02282004995210053 -4.433431678178778  1.953980130374701 -1.330266383170357 -1.324877323119232  2.119645539212011 -1.063943196873217 -2.16875141431749  2.347174284999623 -0.644166255275256 -1.512209868352367  -0.9544847587153034 0.2082884202364102 -8.077214194237623  2.428063659173941 0.6502636553346455 -6.13869646814113  2.468638021016472 0.03052884545326671 -6.462274698958955  2.575155094631225 0.5227640546776119 -7.017613712441078  2.261492862495994 -0.001265568693941385 -5.541480027833106  1.671251831850916 -1.285648464045552 -6.177117774401435  1.293649342474352 -1.397610498980035 -6.933411424986977  1.908130429525672 -0.9847391866837976 -7.134877224336974  1.008631388119573 -1.653338968983257 -6.391298909827436  2.254013687229202 -0.7110701274282584 -0.7270799008285093  2.034344163351517 1.201188770790358 -2.236545170226561  2.340510751651124 0.6235191793235537 -2.052928702774654  0.2222675950277463 2.240708513077166 -1.491939837445021  -0.5295970565259083 2.117528863838675 -1.469082328615871  0.003623407288626689 2.35417612844149 -0.7519820696355232  1.527245076309306 1.641185571262511 -2.415471341274968  0.658488024488021 -2.160073275127782 -4.607013728536264  0.9318486021688176 -2.19262016973025 -3.590247417682047  0.1842440561182254 -2.401043513035199 -3.793663566665708  0.3064342157674505 -2.429844432238743 -2.891034675413982  0.6100780386148356 -2.373694095602529 -2.180465314209307  0.002108124495511968 -2.406834404855817 -2.136290990825215  1.626244984983823 -1.774562648796664 -1.825468263218132  1.177850925461157 -2.171245124409523 -2.592935750191565  1.663466643044765 -1.73217749516263 -2.603765054939927  1.86899042879724 -1.111558323285244 -3.192427298020155  -2.074131083712322 0.6272052580838681 -1.513397064283501  -1.7838643281252 1.180841125927903 -1.617744970862093  -2.082468379640241 0.8758599782127748 -2.320091797750322  2.105574236947005 0.7528846093276497 -2.888859993573468  1.647159543159814 1.369092832003284 -3.100295426484696  2.460191678019366 -0.1279128687876188 -0.9397463946667356  0.8351686097518279 1.894687652990048 -2.93595446574327  0.4927690408737186 2.11044352306364 -2.114031639916814  -0.5643812253727691 -2.301770792227103 -2.605643307162726  -2.266324534172417 0.1918352027513546 -1.863012870177998  -2.298616493319217 -0.496346034500197 -2.258101995406067  1.49342185938516 -1.713653098261583 -3.485618745733924  -0.6257688970634105 2.224363547379909 -0.6642834015814585  2.217647603889886 0.6982311946072279 -5.176829786747351  2.161623547787142 1.178669828673725 -5.784533647030544  -2.346661519916955 0.3474374245258313 -2.704012632279412  -2.332224194085228 -0.5011407875559991 -3.145635146345036  0.8485690454184104 2.180532753570777 -1.437725326034009  -0.1210410124489868 -2.304271714006219 -4.426101392452687  0.08663261641284675 -2.096941494370738 -5.220136571233143  1.945838506952817 0.8318894424917213 -3.786873781141807  -1.253509034626454 1.800921080260292 -2.764744829489468  -0.7201797443758352 1.984423039301861 -2.394975824513585  2.191674690188673 1.347067135055804 -6.689750301073409  -1.644668783067323 1.67452438058785 -3.366039230813488  -1.505941143501274 1.540859855778469 -2.114846641526875  -2.088797148886595 -1.08871706978329 -2.507307392633036  0.6453783868151036 -1.130367227425559 -8.343570097082981  -0.0002874250609622292 -0.9371102336060481 -8.30890188936546  0.4668901226201128 -0.7974613644441486 -9.077353879754751  -1.127782029765591 1.802736878022316 -1.673502008642569  -2.430884413348623 0.1297733018810471 -3.692139098321978  -2.204147467538379 1.016344698045055 -3.289862424233286  -2.343498200611839 0.9059551149184392 -4.085565512668524  -0.1965629324380924 2.083020479700992 -3.199676439252661  -1.754736745081764 -1.570940216358896 -2.298921555414799  2.081645372690866 0.2085806757312931 -3.456992214200131  1.924552105665921 -0.4718552856369161 -3.779904428181506  2.074795731301984 0.2058178308457302 -4.492508836994303  1.959423115691132 -0.4886819213683999 -4.866360107326031  1.645576927153042 1.333569152329755 -4.080984527916419  1.193431726805594 1.654377167420223 -3.657248363543302  -2.25010689146957 -0.6320909592629625 -4.01443749083552  -2.054947091360883 -0.7249750251699064 -4.772517532894753  1.203288675374874
[...]
<PointData  Vectors="f_1420923-0"> 
<DataArray  type="Float64"  Name="f_1420923-0"  NumberOfComponents="3" format="ascii">1.9171751787630573e-01 -3.1541483351814420e-01 0.0000000000000000e+00  1.0875602865660189e-01 -2.3378424051368699e-01 0.0000000000000000e+00  2.6749986894511807e-01 -2.1578457589571065e-01 0.0000000000000000e+00  2.9981917386963952e-01 -9.2883170507114143e-02 0.0000000000000000e+00  2.9559873463504954e-01 3.9135721625878299e-02 0.0000000000000000e+00  2.6202239977083663e-01 1.6819300576377144e-01 0.0000000000000000e+00  1.9121942551018276e-01 2.6374609941183907e-01 0.0000000000000000e+00  9.0183481916982583e-02 3.1056999154594833e-01 0.0000000000000000e+00  -2.7353538528409986e-02 3.0446003560953233e-01 0.0000000000000000e+00  -1.4926524025423102e-01 2.7608296757676926e-01 0.0000000000000000e+00  -2.5197576965610913e-01 2.1514122739754443e-01 0.0000000000000000e+00  -3.3016207178347068e-01 1.2153190277693121e-01 0.0000000000000000e+00  -3.5723605484951693e-01 6.7251077465972399e-03 0.0000000000000000e+00  -3.3534371533608442e-01 -1.2057801621857814e-01 0.0000000000000000e+00  -2.6973338190370022e-01 -2.4434566925034698e-01 0.0000000000000000e+00  -1.6686725555562087e-01 -3.3747904674804441e-01 0.0000000000000000e+00  -4.3374831298869938e-02 -3.8398678089581223e-01 0.0000000000000000e+00  8.5126799253135974e-02 -3.7673328500043612e-01 0.0000000000000000e+00  1.5147526424324945e-01 -1.9046074223421364e-01 0.0000000000000000e+00  1.8151420478780128e-01 -1.3037414936595801e-01 0.0000000000000000e+00  1.8895925824060536e-01 -6.7711590845322911e-02 0.0000000000000000e+00  1.8241243259896670e-01 -1.3106526282963920e-02 0.0000000000000000e+00  1.7775180977045357e-01 3.2647519846890009e-02 0.0000000000000000e+00  1.7430448260504178e-01 9.4547612904252773e-02 0.0000000000000000e+00  1.4746210289067493e-01 1.6485957388372610e-01 0.0000000000000000e+00  8.9126219770610943e-02 2.1494726938746719e-01 0.0000000000000000e+00  9.8021121334255085e-03 2.2343449946469179e-01 0.0000000000000000e+00  -5.3791405306560597e-02 1.9734413047698038e-01 0.0000000000000000e+00  -1.0113785901194577e-01 1.6839769881878783e-01 0.0000000000000000e+00  -1.4175040336557546e-01 1.4072751594334262e-01 0.0000000000000000e+00  -1.8061627457417448e-01 1.0750510017205192e-01 0.0000000000000000e+00  -2.1504342626132628e-01 6.2805945405151303e-02 0.0000000000000000e+00  -2.3501885648820606e-01 9.5249834832008533e-03 0.0000000000000000e+00  -2.3711234380129179e-01 -5.1532454488108059e-02 0.0000000000000000e+00  -2.2074177355884414e-01 -1.1144487975752737e-01 0.0000000000000000e+00  -1.9025014490720060e-01 -1.6761189223662756e-01 0.0000000000000000e+00  -1.4047130413430850e-01 -2.1489329580484035e-01 0.0000000000000000e+00  -8.1535903253082298e-02 -2.4864610307110632e-01 0.0000000000000000e+00  -1.9547303367625599e-02 -2.6868211043898782e-01 0.0000000000000000e+00  4.8612674449628294e-02 -2.6332349628747054e-01 0.0000000000000000e+00  3.1271191328184045e-01 -1.7544661738978531e-02 -1.2647800311421906e-01  3.1222133178898898e-01 -9.6481157331907097e-02 -1.0768681996819013e-01  3.3846318967659922e-01 -1.0246873229216501e-01 -1.4907459011573440e-01  2.9238223194695118e-01 -2.7721162000595476e-02 -7.2944303625717286e-02  -3.7739699204852608e-03 -3.5246562503880091e-01 -4.7707776640313351e-02  3.9393494414891823e-02 -3.7454853020999063e-01 -4.2552866089662850e-03  -6.5576914378655093e-02 -3.6654640197322502e-01 -4.6621215462063969e-03  -2.0999170964237965e-01 -2.7648006052938773e-01 -1.4379953605555038e-01  -2.1411389732543348e-01 -2.6532055831411117e-01 -1.9562666682933674e-01  -1.1155798436113563e-01 -3.0510019632083307e-01 -1.7921127335758746e-01  -3.3416289878810224e-01 3.9138037865298868e-02 -1.3760829052906773e-02  -3.0052444258198374e-01 1.4263763456383033e-01 -1.7072294028073910e-02  2.6428638492291162e-01 7.8794937213626431e-02 -6.3115739438034196e-02  2.8724728255536075e-01 1.4243837591383885e-02 -2.1550081935682083e-02  -1.4306481269171731e-01 -2.8507717588188974e-01 -2.3230008614557676e-01  1.0541872714021946e-01 -3.3240856076253750e-01 -5.3756857183299915e-02  2.5780401203064784e-01 1.2638720400482120e-01 -2.3324081718549793e-02  1.9304342019359189e-01 2.3180050956166448e-01 -3.5133816048737783e-02  9.1347671450263776e-02 2.9799116746216181e-01 -3.3497017934612523e-02  -1.7179791668528593e-01 -3.1273006800215736e-01 -7.1314971587708251e-03  -2.7736632583389903e-01 -9.1959525523984717e-02 -3.1967027326634573e-01  -2.8123999541300060e-01 -1.5998980425346193e-01 -3.1174518633632275e-01  -2.9798860225660573e-01 -7.8418654696034068e-02 -2.7395885676247123e-01  -2.7366803220424019e-01 1.9071614016482222e-02 -2.3480578866359597e-01  -2.2835631865714190e-01 9.4988394904266776e-02 -2.5310141034408723e-01  -2.6370164505598920e-01 3.7341218097651562e-04 -2.8671028188153758e-01  -2.1848667280180101e-01 1.3497108880856698e-01 -2.0542520761959074e-01  2.1619029758254782e-01 1.8521816316288708e-01 -7.2846966296221727e-02  1.4455537664710250e-01 2.6317293545110843e-01 -9.2483444396398204e-02  -2.3889759106555405e-01 -2.4286006520877396e-01 -2.4702467857212776e-01  -2.8746885884676643e-01 -1.9577429643407118e-01 -2.0151330821899943e-01  -2.4678189708764506e-01 -2.3011537120248488e-01 -5.2841070939486590e-02  -2.3313356675211933e-01 -2.5323558391090584e-01 -1.4609311110582760e-02  -2.9651845925432463e-01 -1.7661513301331030e-01 -3.1196622967472887e-03  -1.9618065010046493e-01 -2.8493381886597252e-01 -4.3266783464751525e-02  -1.9866064728416402e-01 -2.8525224553216011e-01 -9.8227193086662418e-02  -1.1690989640517145e-01 -3.2760311102917011e-01 -5.8070955804237170e-02  -2.7703567390662709e-01 -2.0771384800059772e-01 -1.5371451241146877e-01  1.3712952271727430e-01 2.9129234962766848e-01 -1.9239601616936644e-01  9.8579851108397759e-02 3.1839162569440321e-01 -1.6780705626896458e-01  1.6687205335183661e-01 2.6328743692080758e-01 -1.5470928178812990e-01  -3.2185672384179848e-01 -3.7214622455753382e-02 -4.2149593897823232e-02  -3.3061596483827094e-01 -7.7211876660482334e-02 -5.2930498151086422e-03  -2.9538533626691788e-01 -1.4479707527472144e-01 -6.0448229712631744e-02  2.3393422009515982e-01 -2.6650713553429894e-01 -8.7069954584486423e-03  1.6162176077163418e-01 -3.2514816448727446e-01 -1.7585163910693563e-02  -1.4754588510681466e-01 2.3922556383933444e-01 -1.6659277820233037e-01  -1.0048710742335326e-01 2.8742997312871177e-01 -1.2256418682278404e-01  -4.8862609194354784e-02 3.1659501668085321e-01 -1.5489770338761866e-01  1.1181473112413721e-01 3.0980965626866536e-01 -1.4319097945472029e-01  -9.4279063014524045e-02 -4.3143342060712221e-02 -4.3071987097480779e-01  -1.3722168464014267e-01 -8.8613758826054240e-02 -4.1343212849446037e-01  -1.3697332598449125e-01 8.3967743670317566e-03 -4.1354167944374076e-01  -3.0352197122930485e-01 -5.2921632442118310e-02 -2.2360374383980153e-01  2.4366623020283493e-01 -2.4355552826719304e-01 -4.8242759843259812e-02  2.9115406367424068e-01 -1.8328796825646737e-01 -1.0551153178954420e-01  2.8919453922595878e-01 -1.4317083646568013e-01 -6.1911229689779301e-02  -1.7523089045892981e-01 -5.1783143140723804e-02 -4.0012730902342747e-01  2.5642026983393978e-01 6.2091861997898012e-02 -2.0852329940134812e-01  2.6278197431912292e-01 -2.3529823548636173e-02 -2.2965580246300507e-01  2.3573356961585040e-01 5.2585259994111129e-02 -2.5042225579436772e-01  2.9879019912111721e-01 -4.1198161737411379e-02 -1.8550575845465367e-01  2.0246723220850313e-01 -1.9236142431240472e-01 -2.6157096782483180e-01  1.2977752294564049e-01 -2.1591276257902561e-01 -3.0959770950429200e-01  1.9310233913687280e-01 -1.6044736923363220e-01 -2.9496533290539123e-01  1.0764703404155163e-01 -2.3570873624475902e-01 -2.9615606455238158e-01  2.7697895668774408e-01 -1.7397887518912866e-01 -1.6084994320111456e-02  2.4229034799119958e-01 1.3777642101003179e-01 -1.0794732912863467e-01  2.8115612991874911e-01 4.6341491891713001e-02 -9.7898017892345549e-02  1.3652800243501063e-02 3.0982842096490004e-01 -6.9415235990784252e-02  -9.1375419987752712e-02 2.9784877345279231e-01 -6.4847135306290299e-02  -8.9809748700776341e-03 3.0826494888466860e-01 -3.3410790403663064e-02  1.8746357229204916e-01 2.2225615960501108e-01 -1.1466454300730021e-01  9.5007862162410306e-02 -2.6912517268406771e-01 -2.2673374485602329e-01  1.3268128059512960e-01 -2.7895036350706959e-01 -1.7878128259109727e-01  1.5393869799118991e-02 -2.9633011588308439e-01 -1.8705919657595632e-01  1.7429148284928222e-02 -3.1633440674229579e-01 -1.3760365425559051e-01  5.0082339302615124e-02 -3.2554655981867614e-01 -9.4604142292701393e-02  -3.5764474983037420e-02 -3.3727101736832643e-01 -9.1377634899910243e-02  2.0029165863409207e-01 -2.7736870781573947e-01 -7.6096841504820170e-02  1.4221910575573368e-01 -2.8923358878531685e-01 -1.2466983250390440e-01  2.3331718242687899e-01 -2.4704099142773803e-01 -1.2982803238185048e-01  3.2084961352641683e-01 -1.8066169378036864e-01 -1.6372626679892949e-01  -3.0532481156162983e-01 1.0007488590917454e-01 -4.4965858191930559e-02  -2.6541193774659227e-01 1.7419205641864269e-01 -5.3112439683972570e-02  -2.7708067791187180e-01 1.2631918985280016e-01 -8.1419880417414214e-02  2.7986574677746906e-01 7.7802095205293839e-02 -1.3414095352987823e-01  2.1578155906989041e-01 1.8779847645808320e-01 -1.3311165679021336e-01  2.8943460377330621e-01 -7.9739422022077955e-02 -2.8244794474503458e-02  1.1379303294009277e-01 2.9021494212863619e-01 -1.2410720248975299e-01  5.4695881306531892e-02 3.0814154006733674e-01 -9.7112837251881134e-02  -1.0989982410116027e-01 -3.2406639192872944e-01 -1.2032249417351888e-01  -3.1387761798832770e-01 3.5657357409001091e-02 -6.5353095585444998e-02  -3.1500677944385397e-01 -6.9042298163574517e-02 -9.5628511277176420e-02  2.4564021847709461e-01 -2.3899054043454018e-01 -1.7616398481266171e-01  -1.0224763747936713e-01 2.8886769941976720e-01 -2.8734218937837768e-02  2.7576952679157313e-01 6.0923171827061265e-02 -1.6987662248180974e-01  2.3348386541107424e-01 1.4185946614028530e-01 -1.9375722793147881e-01  -3.0164266431541820e-01 3.7026356048603451e-02 -1.0976290720091560e-01  -3.1393454378390628e-01 -9.2255094360311277e-02 -1.4640880270006823e-01  9.6509996519584820e-02 2.8993638819177792e-01 -6.9067506190301650e-02  -2.3521029318243427e-02 -2.8967566402638056e-01 -2.2522495785500918e-01  1.4690382667145447e-03 -2.7921682984501545e-01 -2.6533399460413604e-01  2.7661705587619478e-01 9.2961630580735491e-02 -1.4572061667908742e-01  -1.5728206332912251e-01 2.6023637481957412e-01 -9.5962911347086358e-02  -9.9406359344923922e-02 2.9636935793547925e-01 -9.1399277614142405e-02  2.0630111947979857e-01 1.7319070492970035e-01 -2.3420436996393076e-01  -1.8527313793805184e-01 2.1960733718181108e-01 -1.2354467982675943e-01  -2.0708943935132823e-01 2.2687964553291939e-01 -7.2993723891989562e-02  -2.9667973106824841e-01 -1.5997212059848659e-01 -1.1530395126113117e-01  2.7977031062367454e-02 -2.0098251859872165e-01 -3.8225461533908278e-01  -5.3456583502947339e-02 -1.8928046825204994e-01 -3.9697566463853157e-01  8.0724706342379989e-03 -1.4407233719993501e-01 -4.1467021857375930e-01  -1.7225110909138486e-01 2.6239660419749250e-01 -6.4938007441581125e-02  -3.0455575406159369e-01 -2.0142390619718863e-02 -1.7025164628248873e-01  -2.5934514285446031e-01 1.1378508074135757e-01 -1.3069793483469164e-01  -2.5734376301416023e-01 7.2548701989697068e-02 -1.8184519609432781e-01  -1.0010235964548897e-02 3.2192140360816873e-01 -1.1942181800787874e-01  -2.5968633371165739e-01 -2.2519514132509333e-01 -1.0501123697405743e-01  3.2542708837075807e-01 -6.4171546942488663e-03 -1.5156406997663247e-01  3.5385421918125637e-01 -1.0807181909674321e-01 -1.6634958245424095e-01  3.2108122910287767e-01 -1.3624537896539213e-02 -1.5668462163476143e-01  3.3197564235855115e-01 -1.1191795939017120e-01 -1.7563338887811047e-01  2.2677067599502840e-01 1.8348544812765749e-01 -1.4325015607224464e-01  1.7382736287300599e-01 2.5737613853616359e-01 -1.3728161988781615e-01  -3.0974766170185614e-01 -1.2943905973750805e-01 -2.0461286920254734e-01  -2.9766206279629848e-01 -1.5908143490592264e-01 -2.5954345281776187e-01  1.5513133238939233e-01 -2.2901201647897670e-01 -2.6142361982289097e-01  1.8087388764719220e-01 -2.3551836133905998e-01 -2.3356214702854608e-01  9.8241608716367723e-02 -2.5448894569934216e-01 -2.5991102322547383e-01  2.6600691278307259e-01 9.9835995645499373e-02 -1.5211344644423716e-01  2.1579001934311939e-01 1.8775402994040188e-01 -1.6745630732849531e-01  -2.4216469553551237e-01 -2.2738792426579552e-01 -3.0025680432120566e-01  -1.7815796721481492e-01 -2.6937775377223261e-01 -2.8147463644572324e-01  -1.5214967347858499e-01 -2.6008698262125124e-01 -3.2455348967147013e-01  -2.9443946696330534e-02 3.1402107563710335e-01 -8.7380004135044806e-02  8.4081528902493537e-03 3.1808844315477069e-01 -1.0483219342153834e-01  -6.5287067521051775e-02 3.0890358215580216e-01 -2.0308489498640778e-01  -1.1162275175445141e-01 2.7613584501185695e-01 -1.8805310044083920e-01  -1.7041285904589165e-01 2.0291752098566668e-01 -2.2648237053642162e-01  -2.3638582115043050e-01 2.1333865749795167e-01 -3.8696040159001327e-02  2.1915606689413283e-01 -2.3913824582627333e-01 -2.0547054059012393e-01  -1.7904944378567600e-01 2.5478676436594017e-01 -3.1873043103812330e-02  1.4301558157262598e-01 2.7469695643693359e-01 -2.3474945445681458e-01  1.4262425587022390e-01 2.4530312440232593e-01 -2.7310339795355237e-01  5.7418025152533164e-02 2.9732540420230213e-01 -2.8094055930676604e-01  -1.8835611246829501e-01 1.4216086570411929e-01 -2.6951691890214202e-01  -2.2020135657435208e-01 6.0762730451961955e-02 -3.0350740892199313e-01  -5.6221156094519428e-02 -2.6006581068977730e-01 -3.3928853029988049e-01  -1.2129928021530605e-01 -2.3328127407052945e-01 -3.6679242263774320e-01  -1.9160984362022074e-01 -2.1427609773197862e-01 -3.5844836128971180e-01  4.5816483956643485e-02 3.2870125288408514e-01 -1.3725894364529734e-01  -9.4455695591817532e-02 -2.8480544722618073e-01 -2.7314320079070969e-01  3.1545654393018446e-01 -1.8441580334655444e-01 -1.8816877101794074e-01  2.9022465561155508e-02 3.3658594349383664e-01 -1.6718019837724846e-01  2.6470601293495899e-01 -1.8349606179545602e-01 -2.1672338797985952e-01  -4.3890063215479988e-02 -3.1708390226273347e-01 -1.5280846167067591e-01  -2.1789173478125629e-01 -7.8217319919681214e-02 -3.7674106082066544e-01  -1.7946087108449213e-01 -1.7571659130430523e-01 -3.8470578398359989e-01  -2.4681202524651488e-01 -1.4744176651937865e-01 -3.5495916037323166e-01  3.1989451278864954e-02 -2.6103965885262426e-01 -3.0029545140939096e-01  -2.3043597250371387e-01 1.8158298737254758e-01 -9.9862909765285821e-02  1.9036767174807065e-01 2.2514306413901647e-01 -2.0263133049362583e-01  2.5222978473220931e-01 -2.1317846219365200e-01 -2.1205924832957032e-01  3.5166997981794255e-02 3.3278707166566879e-01 -2.0238155579568165e-01  -6.0331023027804430e-02 -2.7686907715148323e-01 -3.0151028437909322e-01  -2.3290367219907432e-01 -2.1112365170777075e-01 -3.3450208681013016e-01  -1.3197847112576130e-01 2.3570459950450787e-01 -2.5170345207875172e-01  -1.6893637333642800e-01 1.4487921389284383e-01 -3.0456647406655418e-01  -2.4700107394839468e-01 -4.3641243263062734e-02 -3.3882381880968249e-01  -2.0860761253601584e-01 1.7180120979937932e-01 -1.5583378381552079e-01  -3.9703237037824989e-02 -2.3159573701502792e-01 -3.7425402022672216e-01  -2.0087324446009855e-01 2.5470111142158337e-02 -3.5663552542107541e-01  -9.5178724572056228e-02 2.4571440888774904e-01 -2.8256237868390088e-01  2.2144524365461375e-02 -2.4958340073036459e-01 -3.3981035594001563e-01  8.7038350714076659e-02 -2.1712717443180682e-01 -3.4380599821459334e-01  2.5899324269121421e-01 -1.2216482316087314e-01 -2.3470295710075212e-01  -5.7402452233274781e-02 2.9753821047826234e-01 -2.4129046083010350e-01  2.3885766685485596e-01 -6.8439437079507601e-02 -2.6647536533167188e-01  7.3117025612686001e-02 3.1596678374458137e-01 -2.3593483013742139e-01  -2.6138470474796958e-03 3.1024486481445906e-01 -2.5864091480124418e-01  -4.1342885319727546e-02 2.6925548667762139e-01 -3.0644328084292144e-01  -1.1953051095326851e-01 2.0116783010673894e-01 -3.2098208229296982e-01  -1.1215205923664151e-01 1.7990542696183948e-01 -3.5588994333280999e-01  1.7015105896164479e-01 -7.2775108183890672e-02 -3.6879560637766839e-01  2.0603981654645492e-01 -8.0923486489761429e-02 -3.1599927106505321e-01  1.5483156759556518e-01 -1.5462157257495640e-01 -3.4527380953935649e-01  1.9461090918892923e-01 1.5722972280701142e-01 -2.7401871107347264e-01  -1.5898633996651099e-01 1.2216680062544856e-01 -3.4905142670976952e-01  2.2574980257804603e-01 2.4078180049947368e-03 -2.8944862292660828e-01  1.9497387904294086e-01 2.7176893582079160e-02 -3.3035660317394905e-01  -1.2323766547894430e-01 1.0083256938024840e-01 -3.9539316763891164e-01  -1.6115133551458563e-01 6.3927238085351445e-02 -3.8292693821409934e-01  -9.1911894409186082e-02 6.3311615564522486e-02 -4.2032883443805480e-01  -7.2314594326748041e-02 1.6940984972634313e-01 -3.8367352006999439e-01  1.4119710329235408e-01 2.1398719350393108e-01 -3.0637900490879172e-01  7.0430475460015782e-02 2.5884802905421722e-01 -3.1885985335574346e-01  8.9174349640923009e-02 2.0542512810979396e-01 -3.5254713403533094e-01  2.1161345218254515e-01 8.3296467493039997e-02 -2.9049402062251917e-01  -1.2822788530505269e-01 -1.5872094988422267e-01 -4.0067895274489806e-01  2.9521760968521099e-01 -1.2609447344529051e-01 -2.0079011826710463e-01  -7.4729607231169906e-02 -1.2129886958663455e-01 -4.1962141319686269e-01  -1.8197406319344317e-01 -1.2032928996087069e-01 -3.9628835250516486e-01  -1.9955496933939405e-02 2.4415843696460590e-01 -3.4452538818650846e-01  -1.0947509104300203e-01 -2.0818873170284077e-01 -3.8726751274012938e-01  7.3205903728096279e-03 2.0747962498582598e-01 -3.7449474299506769e-01  -6.1404002420232182e-03 7.0479740516050188e-02 -4.1398330659129129e-01  -3.5811087933405261e-02 1.3040637448056822e-01 -4.0439533383975734e-01  3.8077417377459087e-02 1.6341732862034841e-01 -3.9542357584052606e-01  1.6927761525490595e-01 1.4268358476222259e-01 -3.2154636813763460e-01  1.5527801132702887e-01 9.4729225411721060e-02 -3.5618314592118860e-01  1.1244056510799341e-01 1.5397337629710392e-01 -3.6670142288540120e-01  8.4371259540821614e-02 8.8464544381810700e-02 -3.8833199461673712e-01  1.2075451896989162e-01 -3.3206692722671120e-02 -4.0610457913745895e-01  5.9143617533764570e-02 -8.4242197369036376e-02 -4.2409838290551904e-01  4.5901103594727731e-02 -2.3948105135102337e-05 -4.1965882839462026e-01  -1.8882351332772853e-02 -7.0717256830003822e-02 -4.3225826190691119e-01  1.0014477039733143e-01 -1.4260570107409834e-01 -3.9637908244668041e-01  9.5293812141476489e-02 -1.8549114125394561e-01 -3.6830574241149810e-01  -4.1708613428242468e-02 2.7283037659085272e-03 -4.3588255930267061e-01  1.5416942085609289e-01 2.5655768836365420e-02 -3.7204933150870034e-01  -6.8492854440535433e-02 1.5921841137054601e-01 -1.3071433666324772e-01  -3.7607684662424999e-02 1.8283533999544899e-01 -1.5260203246389145e-01  -7.1240709392194110e-02 1.6495869896886201e-01 -1.7436721517988346e-01  -1.5254805181100669e-02 1.8464655557830342e-01 -1.2923290528857237e-01  -1.1632167762455721e-02 -2.0505609010856557e-01 -1.3713106883960538e-01  9.7196739894592193e-03 -2.1317320603503484e-01 -1.1865435280382990e-01  -3.6386259964420520e-02 -2.1767867311176287e-01 -1.1193047212855044e-01  -1.0260310789270482e-02 -2.3188567442547325e-01 -9.0265382042782394e-02  -1.3719648754707769e-01 8.6421497920067855e-02 -1.2289410211552529e-01  -1.5256039944495500e-01 7.1459358695544956e-02 -1.0754358181754552e-01  -1.3858828119400882e-01 9.9351918846039208e-02 -9.0227295670738589e-02  5.7680765671867848e-02 1.8802443973274571e-01 -5.1294040223241258e-02  1.1122375821040183e-01 1.7126737937997075e-01 -4.2965431546008438e-02  6.3531820990745322e-02 -2.0464735066728729e-01 -1.1952473936673280e-01  3.8301835426546554e-02 -2.2334746966874439e-01 -9.1747320144198480e-02  9.0168353464874632e-02 -2.04352013172149