<?xml version="1.0"?>
<VTKFile type="UnstructuredGrid"  version="0.1"  >
<UnstructuredGrid>
<Piece  NumberOfPoints="627" NumberOfCells="1875">
<Points>
<DataArray  type="Float64"  NumberOfComponents="3"  format="ascii">-0.09958088469215443 2.353858786324582 -1.314110312792047e-15  0.108089434576368 2.88920504958479 -1.349608534761297e-15  -0.7474294221162233 2.302374750435658 -1.327474957668866e-15  -1.308798137294938 1.985683190674122 -1.274447399233924e-15  -1.738603006898107 1.492917027747721 -8.806405668954395e-16  -2.003182665885506 0.9006002425680122 -8.741969502476264e-16  -2.109776450315292 0.270277949324914 -4.199174240011859e-16  -2.007976306691265 -0.3461165148253934 -4.315291987426416e-16  -1.672672022913257 -0.8769454539915946 -4.465480039251547e-16  -1.182995817936114 -1.283238586537398 -4.25803444817248e-16  -0.6002903651225439 -1.546426850132351 1.678789409987074e-17  0.04301689390371161 -1.630287253029776 4.654694163605882e-18  0.6820351430883956 -1.558538072151524 1.82260477888311e-17  1.262294167188633 -1.291076591637735 -4.291415209842791e-16  1.744404244186638 -0.8794397101411987 -4.3593915724948e-16  2.027777146706728 -0.3222096475548903 -4.366571451736332e-16  2.096356848079245 0.2956425878378898 -4.437186265128168e-16  1.954743309604233 0.8982243812649742 -8.849797358449218e-16  1.608026290387243 1.427453663546861 -8.747751019164816e-16  1.115517776290461 1.850744626049508 -8.750273268621329e-16  0.5377606154382067 2.16467721658633 -1.330276315383832e-15  -0.5958960864298973 3.008071745343963 -1.305721296195883e-15  -1.314504076587427 2.903363119484087 -1.32287890197238e-15  -1.95970980507143 2.567532086844841 -1.314464120843946e-15  -2.484704208435339 2.058634051177685 -8.74132736564537e-16  -2.851860803747304 1.428669850636815 -8.92031201830547e-16  -3.059873690281285 0.7313083740397465 -4.612546584291719e-16  -3.102282135998182 0.006819098971218858 -4.396568409389607e-16  -2.925238808392185 -0.6976879418740051 -4.08494400890774e-16  -2.60227797495257 -1.338869962562021 -4.417398914626682e-16  -2.15600212504728 -1.906394745658324 4.397725295297597e-17  -1.592512498774799 -2.36469041994489 6.365342715103012e-17  -0.9259122310992141 -2.650596364515373 1.862623469292715e-17  -0.2033624068900601 -2.747031603160885 -3.192775063544851e-17  0.5158495658087988 -2.682733552675356 1.713709821892138e-17  1.203209526287289 -2.46627878925891 2.360449128845613e-17  1.826241077731051 -2.110508281339535 2.985340745620033e-17  2.35918305751195 -1.636920504858085 -4.146967177327181e-16  2.777662097532823 -1.055404921341125 -4.636135764259501e-16  3.061919227333633 -0.3957416411817071 -4.212633096057777e-16  3.158950793843232 0.3242109693262549 -4.57692411523555e-16  3.008679374829598 1.037739142906833 -8.804104277954099e-16  2.625889512215018 1.655845671475245 -9.02467023847913e-16  2.080754457467325 2.133999485462959 -1.318381247829009e-15  1.451462532393198 2.471199632866224 -1.310301059340606e-15  0.7832073162420486 2.705183426407749 -1.311940210423198e-15  2.071880834824277 1.216958784487734 -4.021095860682379  2.005477898653446 1.073760350749129 -3.444455348026382  2.361867033957927 0.7194705290722231 -3.826839358624804  -2.317694120140804 -0.1981890543342574 -0.5876656739466113  -2.45266372983352 -0.3629940405453252 -1.056788440188345  -2.527189126524986 -0.06081806669030748 -1.628588293709847  -2.406708931293425 -0.6221340029908609 -1.585491176761934  -0.738922237095139 -2.03834627750806 -2.741118056594145  -0.3009014829914353 -2.184740595994686 -2.229556655707095  -0.8447372942429571 -2.031801450363734 -1.980404738338835  -2.395331713394511 0.7753345824251708 -2.941724694017226  -2.290271753183905 0.43384773964673 -3.414589776421552  -2.453788022781768 0.257057850928852 -2.839221524726696  -0.04252273114689235 -2.182698682102834 -2.902070749017027  -1.779506327405183 -1.353936322875048 -2.594046510065587  -1.825525128711078 -1.458787033757195 -1.837371002538149  -2.198418153668031 -0.9771877514315388 -2.073730857698338  -2.056438731523533 -1.177915163938879 -1.332862391219338  -2.04402937779625 -0.7119554412660414 -0.4245965695127882  -1.678739756156031 -1.206122690049527 -0.5437300096072528  2.216888553205681 0.6831528382560821 -2.858839854339016  -2.111476244852009 -0.7515204021902109 -2.814435309225373  -2.232940427155873 0.9824053154182805 -3.576131210788541  -2.437450426458232 -0.3369838056952115 -2.346691477716834  -2.304410907239028 0.7692971131424118 -1.029514499490864  -2.098292108032438 1.188371274109975 -1.510558306112953  -2.421515056927845 0.63293845200489 -1.568023355787067  -0.4923075926758749 -1.317863549814829 -4.590606845169115  -0.01835880760628833 -1.437192360277324 -4.766658757425481  -0.1457472882303233 -1.72918958917431 -4.208973489756117  -1.210699664929666 -1.661872445510209 -3.151624009440048  -0.5955394008165481 -1.965005102914898 -3.289118785190845  -1.331430564881364 -1.784650995794795 -2.357579346640624  0.2995188872642514 2.273697302328669 -0.7778849003474266  0.9016234771358873 2.003285517665473 -1.183312856353564  0.3321918839494041 2.034113706000975 -1.543185848269426  -0.8117947557082235 -1.598810270426645 -3.822504539882867  -0.127359258571487 -2.022159565907446 -3.632094701598526  0.4378930410762074 -1.600481841929509 -4.657309924708882  0.8917913025961238 -1.67918407196626 -4.472167298624641  1.116214634787034 -1.851922828523312 -3.920290192121076  0.4406936653023297 -1.927104252328324 -4.037983097400608  0.5176899409400039 -2.11932556762942 -3.313824038499932  -0.1280046635041847 -0.6476944506605961 -5.808982315089521  -0.5221232656995963 -0.6991963758756863 -5.369484540030676  -0.4532376498893794 -0.3029876846660947 -5.86403595029005  -0.8436576087037575 2.050702398909332 -3.012641478303946  -0.3824396786904026 2.166991430453407 -3.50674798839674  -1.035159349720743 2.101862220601314 -3.632331850669188  -0.5807079211100861 2.090030917961661 -4.257247348997202  -1.844006077102482 -0.5797088523667986 -3.569255638927064  -2.21614560385284 -0.1840262392648939 -3.181779340765549  0.1254565239751327 2.113592662577375 -4.16779417337287  0.2730469836024393 2.003576177353212 -3.304802325719005  -0.1946059206183917 1.983121772942421 -2.66413090383695  -0.8595941430712001 -0.3408509539004722 -5.348001109391955  1.146223910418399 1.604281470611317 -2.879463816147538  0.521931521320196 1.829986993492362 -2.51303525089258  1.025051371046408 1.75533600891915 -1.977958099937905  0.6829906063531606 1.928238754613842 -3.859270560323834  0.7166645100090262 1.827121235884935 -3.249972035607574  1.071486065066977 1.71651430494173 -3.553283725732029  0.8702321635723769 2.100941740197391 -0.5919718747034955  -2.00758888522232 0.04705300411254686 -3.794633903910673  -1.977200477462651 0.6492923858043823 -4.115509563932036  -2.489069516111046 0.1822470441916323 -1.063292257054648  1.927896176306779 1.355660212264323 -0.6894140376649643  0.04548171090044963 -1.820340336676301 -0.639024862755635  2.494319383304141 -0.2753235832882446 -2.199275356579627  2.546725887830951 -0.1906107948964855 -1.632069524382066  2.410735786443146 -0.6919796189846433 -1.935381034438263  2.474786431792648 0.2675549146837211 -2.17294858108731  -2.244919000983636 -0.7853250494045479 -0.9521267204065825  2.252053161428318 0.9047038607360937 -0.7559522100582851  -0.3483304923544268 0.210040936563607 -6.314454848604823  -0.8507227181282464 0.08960562705253679 -5.697624649886782  -2.281967192847816 0.5081679159670462 -0.5315799727710315  2.096008859252817 -0.688939948359143 -0.5741509624947453  1.682456211749424 -1.167255121907489 -0.4989894248125732  2.031837569549587 -1.062001279338968 -1.033927539931317  -2.17157544157375 1.241127541376822 -3.139178699195681  -2.166293543352378 1.214220834674413 -2.445281663009597  -0.7649426305908139 -0.8143199339718246 -4.97488579268229  -1.217696392792585 -0.3921179853444724 -4.7991138304582  2.218167559539507 -0.8734187709790571 -4.274460114498961  2.463505282322128 -0.3378903635978767 -4.346046786385553  2.364700010955388 -0.6941350110077344 -3.568177785907347  2.564855798777477 0.5884827859065775 -5.308688154728727  2.511261165303671 -0.02007511212019999 -5.114318871457732  2.562283442635689 0.1524868069040263 -5.810809193349994  1.127089638941568 -1.969113802183457 -3.099698057050541  1.528590257461822 -1.718455586833071 -3.588130863699043  1.630675364607429 -1.532737046942867 -4.0990248443396  1.400310231498731 -1.451227614301966 -4.625620515454559  1.642934111077838 -1.661391529365843 -3.120526605495894  -1.553091282283755 -1.598761170065019 -1.192968594777529  -1.317491725251049 -1.80679775601878 -1.729971619409619  -0.9394440169829865 -1.911396309890309 -1.359337830083743  1.458631572588738 -1.826172180744049 -2.478038694900284  -1.079780186608477 -0.9689085629357292 -4.408928590890038  -0.2802781635548839 -2.061517689997878 -1.433625112602765  -0.3288721679754107 1.977119800649534 -1.785301404520177  -0.2201698329419889 2.226103258786234 -1.144203669891577  1.413986419888673 1.811653213593155 -0.766633642633652  -1.092441588855491 -1.661678687830269 -0.7320699951825131  -0.7315453930907229 2.132934992345779 -1.191909592919826  2.170978360591338 1.128743544322952 -1.266901693628018  2.507804060050402 0.419637076978299 -1.207131478866425  -0.581417927869465 -1.856949838777862 -0.8566023014532435  -1.682810057466027 -1.091695847756081 -3.256121408319863  0.08678130532554439 1.896466418346293 -2.211868011829518  2.295780003389159 0.4692393896942531 -0.485356535266497  -1.263180208074965 0.2600968176561637 -5.217219996929632  -1.654708008977328 0.6779283038857549 -4.710716751609624  -1.239307342472194 1.065567886517249 -5.313858730720451  2.343758633841185 -0.1124425822530382 -0.6432890668175891  -1.654523605096033 1.263856655699205 -4.486094846177333  1.976632608916084 -1.352109451134772 -2.782676026361391  2.186956261539899 -1.108976976609529 -2.223656424873424  1.90529707262359 -1.466601678495768 -2.141680526236359  2.09409700466517 -1.213132836402547 -1.615258
[...]
<PointData  Vectors="f_4939236-0"> 
<DataArray  type="Float64"  Name="f_4939236-0"  NumberOfComponents="3" format="ascii">5.5577170800600088e-02 6.1489904005818485e-01 0.0000000000000000e+00  1.6787992628788169e-02 5.0615494438573461e-01 0.0000000000000000e+00  -1.0023432036899760e-01 5.7267312106857948e-01 0.0000000000000000e+00  -2.4819601130609326e-01 4.9666304857262961e-01 0.0000000000000000e+00  -3.6571429554026347e-01 3.8453147684065903e-01 0.0000000000000000e+00  -4.5620985887858490e-01 2.3712481337726404e-01 0.0000000000000000e+00  -5.0451824482564744e-01 6.0623544028728424e-02 0.0000000000000000e+00  -5.1984092134817206e-01 -1.3327001089121199e-01 0.0000000000000000e+00  -4.9443857873804425e-01 -3.3584471811471700e-01 0.0000000000000000e+00  -4.1927490973999887e-01 -5.1646215703952469e-01 0.0000000000000000e+00  -2.9524976658343305e-01 -6.4797117208699062e-01 0.0000000000000000e+00  -1.4399268147128386e-01 -7.0702197120083676e-01 0.0000000000000000e+00  1.5054158694026421e-02 -6.8724205676159078e-01 0.0000000000000000e+00  1.5971071443082929e-01 -5.9706465799615849e-01 0.0000000000000000e+00  2.6887879069520704e-01 -4.5071778066033136e-01 0.0000000000000000e+00  3.4398529951292478e-01 -2.7323389146348442e-01 0.0000000000000000e+00  3.8813456808300351e-01 -7.9428835205578974e-02 0.0000000000000000e+00  4.0428536440245344e-01 1.2769132072043818e-01 0.0000000000000000e+00  3.8046681076320221e-01 3.2715484091385949e-01 0.0000000000000000e+00  3.1240623767106990e-01 4.9415737020710837e-01 0.0000000000000000e+00  2.0041291622872445e-01 5.9694102535057947e-01 0.0000000000000000e+00  -1.0212218901794470e-01 4.4088794475776216e-01 0.0000000000000000e+00  -1.7563251726242760e-01 3.5792935374562651e-01 0.0000000000000000e+00  -2.2755721830775785e-01 2.7898086480077222e-01 0.0000000000000000e+00  -2.5818345402352488e-01 2.0075916658085033e-01 0.0000000000000000e+00  -2.8713239309495453e-01 1.2615621967474019e-01 0.0000000000000000e+00  -3.0638794183301460e-01 4.8369828016674089e-02 0.0000000000000000e+00  -3.2076777646747828e-01 -2.8500053827469615e-02 0.0000000000000000e+00  -3.3924332991675493e-01 -1.1196636439465579e-01 0.0000000000000000e+00  -3.3984677392388624e-01 -2.1101512664504277e-01 0.0000000000000000e+00  -3.1686469018689811e-01 -3.0287234547754982e-01 0.0000000000000000e+00  -2.7116952992350229e-01 -3.8038623956925210e-01 0.0000000000000000e+00  -2.0186420201008373e-01 -4.4964449712979154e-01 0.0000000000000000e+00  -1.1949093597664025e-01 -4.8881753851242965e-01 0.0000000000000000e+00  -2.7614856568936103e-02 -4.9514787211785727e-01 0.0000000000000000e+00  5.9152973748876264e-02 -4.6174176324478688e-01 0.0000000000000000e+00  1.2897937408779991e-01 -3.9582225879600380e-01 0.0000000000000000e+00  1.7354003149966912e-01 -3.0288159778356805e-01 0.0000000000000000e+00  1.9405219529827547e-01 -2.0816296122055086e-01 0.0000000000000000e+00  1.9622247532448067e-01 -1.1766999074741066e-01 0.0000000000000000e+00  2.0099701811269044e-01 -4.7596759476259375e-02 0.0000000000000000e+00  2.2323674906452082e-01 2.4075960926057113e-02 0.0000000000000000e+00  2.5559562597146962e-01 1.2536987395012547e-01 0.0000000000000000e+00  2.6700233805711815e-01 2.5549526365163960e-01 0.0000000000000000e+00  2.2862727183793846e-01 3.9114329769967371e-01 0.0000000000000000e+00  1.4357181062023400e-01 4.8903487837100695e-01 0.0000000000000000e+00  3.8805889519778669e-01 3.6163222149732477e-01 -2.4837880131554851e-01  4.0006392993923451e-01 3.5339410308008939e-01 -2.1084470737717131e-01  4.2181482588019242e-01 2.1283084428903201e-01 -2.3579520680225644e-01  -4.9897222123770185e-01 -8.3767948040231147e-02 -1.3309755188998821e-02  -4.8090950461236848e-01 -1.1830819286402294e-01 -6.9438024609857804e-02  -4.7571457953501112e-01 -5.7381600536905150e-02 -1.3830535945225819e-01  -4.7889536114068171e-01 -1.9711469712225088e-01 -1.3715358848323103e-01  -2.3431858020174254e-01 -5.6511857358794682e-01 -2.8826097744181917e-01  -1.5453292363910859e-01 -6.1236268687802486e-01 -2.0848709905611254e-01  -2.6032899813241334e-01 -5.8761839370939728e-01 -1.8230217761058615e-01  -4.1419987980868223e-01 6.6479989013756069e-02 -2.6667994878880602e-01  -4.3692973198675478e-01 -5.1032919050372473e-02 -3.4105029306494855e-01  -4.5301061824013644e-01 -4.9599679090546196e-02 -2.7520261876637497e-01  -9.4358988159938498e-02 -5.8338352283563633e-01 -2.9321939317287943e-01  -4.1848263078045028e-01 -4.1662030900630803e-01 -2.8488864369814226e-01  -4.1961568765856366e-01 -4.2262340713821567e-01 -1.7420223751233457e-01  -4.6405108575933801e-01 -3.0271411473172821e-01 -2.0678956077504276e-01  -4.5532951082926559e-01 -3.4732159390406409e-01 -1.0242168845419485e-01  -5.0102983669871570e-01 -2.4835137786747846e-01 3.3385090681133378e-03  -4.5592069029313115e-01 -4.2150550300360140e-01 -4.5362815173038478e-03  4.1887610064012809e-01 2.2283651943289834e-01 -1.8953811673567125e-01  -4.7023634656376756e-01 -2.9314494426091292e-01 -3.1430615069920470e-01  -3.7961599785760097e-01 7.0378363021315310e-02 -3.2749023913066772e-01  -4.7868336736560185e-01 -1.6316457594233183e-01 -2.3399342369987547e-01  -4.4966203871756372e-01 1.6487511304646432e-01 -6.7988484053942116e-02  -3.9553809255179573e-01 2.7795672175995589e-01 -1.1790056570701453e-01  -4.4751499350789181e-01 1.2081830534903601e-01 -1.2355536869126144e-01  -2.0778647892748295e-01 -4.6366592457322997e-01 -5.2646068084619879e-01  -9.7842927325433537e-02 -4.6840710595258528e-01 -5.2399301315621161e-01  -1.2047715923262337e-01 -5.0701402432276010e-01 -4.6671102086439287e-01  -3.3038725347947639e-01 -4.9522317252024467e-01 -3.5804612530579860e-01  -2.0659547715651394e-01 -5.4682063592413899e-01 -3.6135051036772620e-01  -3.4413986013481129e-01 -5.1227578380207173e-01 -2.4501205143485508e-01  1.0879380437330229e-01 6.1597451636682632e-01 -7.2132992987298819e-02  2.2076005354967251e-01 5.8033898103526460e-01 -1.0698413502607422e-01  1.0105411365905159e-01 6.4086087623715793e-01 -1.4397645910024279e-01  -2.6564319204925169e-01 -5.0001497495264580e-01 -4.4342739005711795e-01  -1.0771599829609950e-01 -5.3794916899049849e-01 -3.8957319025161569e-01  7.2516762435077707e-03 -4.6792872026078136e-01 -4.8933620923780696e-01  1.0609849076707507e-01 -4.4645791608576513e-01 -4.4406059798792963e-01  1.4818541900485865e-01 -4.5643484567838472e-01 -3.7242731824320430e-01  1.2334461107683114e-02 -5.0325514385156167e-01 -4.1777823103651174e-01  2.5587723077176064e-02 -5.4550898460708308e-01 -3.2740570118105627e-01  -1.3169220898961725e-01 -3.2732173234225376e-01 -6.0604640345182859e-01  -2.1848038079551615e-01 -3.5605652034794688e-01 -5.9181598398026181e-01  -1.9549633887669707e-01 -2.5785284935152852e-01 -6.1235930641063330e-01  -1.4144656251366886e-01 5.3360286177734184e-01 -2.2025131101196921e-01  -5.3340517799574674e-02 5.5969967231121998e-01 -2.6402158789688951e-01  -1.7750203333123371e-01 4.3895896684727648e-01 -2.9225982714360144e-01  -1.1982633103348637e-01 4.5665086435058128e-01 -3.4868452519237297e-01  -4.5572687949873042e-01 -2.9952943856029501e-01 -4.1952770116832810e-01  -4.7308032397091471e-01 -1.8628068945884063e-01 -3.4883898101770378e-01  2.6058569842380912e-02 5.6309559495264128e-01 -3.1687429675912504e-01  9.3236219461914585e-02 6.3052855999735791e-01 -2.2990327996519613e-01  -6.0068227048721392e-03 6.3460616590136965e-01 -1.8908328642535593e-01  -2.8406101266472505e-01 -2.8258385423858484e-01 -5.8676747130442841e-01  2.7823110595677830e-01 5.7323500101905767e-01 -1.9692007764804018e-01  1.5027043059258485e-01 6.4530279742510566e-01 -1.8507424666946407e-01  2.4594515455194382e-01 5.8515520452390291e-01 -1.6237092741166748e-01  1.6263749694176299e-01 6.0826615562849518e-01 -2.6607360014904424e-01  1.9105068405997080e-01 6.2526250016296536e-01 -2.1765022298990339e-01  2.5306637416931776e-01 5.8770726838766507e-01 -2.3078190797930617e-01  2.3166652627166517e-01 5.6408556628358542e-01 -4.3708489038861383e-02  -4.5081286585527675e-01 -1.6695981951338987e-01 -4.2056170446627322e-01  -4.0169905993927663e-01 -3.3819738299916233e-02 -4.1852057468439618e-01  -4.7245175889697932e-01 1.5467694727623773e-02 -7.2727629727900145e-02  3.7505972753140027e-01 2.9177317057145591e-01 -2.8963262962296791e-02  -1.0580688834586821e-01 -6.9878654087341208e-01 -1.4792432366673963e-02  4.0043729529409611e-01 -9.4261511371448642e-02 -1.5285995273038500e-01  3.8474252261866798e-01 -1.0685444792270450e-01 -1.0151157990515508e-01  3.7204921436002136e-01 -2.1937902430812115e-01 -1.3067659922685362e-01  4.1318478372015632e-01 5.3237458275504468e-02 -1.5126673839912985e-01  -4.8177774801939971e-01 -2.4143459026787450e-01 -5.6252488867157439e-02  3.8977232456543903e-01 1.4062559307731684e-01 -2.7733403117581427e-02  -1.6396058743934136e-01 -1.2100944579808615e-01 -6.0944789082739204e-01  -2.6342039180945220e-01 -1.7778397898391288e-01 -5.8944760258674644e-01  -4.7891703843804478e-01 1.0292662769038842e-01 -1.6803445447607205e-02  3.3215469476905657e-01 -3.2588407152247545e-01 -2.6177513191292696e-03  2.5817132420607075e-01 -4.8554362972880688e-01 -1.1845494762977510e-03  3.0503080452079867e-01 -3.9112291251504239e-01 -3.8440358510688666e-02  -3.6761098432161321e-01 1.7632044390361379e-01 -2.6998885914859322e-01  -3.8363433967229021e-01 2.3298631807475739e-01 -1.9941786445155166e-01  -2.7039069284480244e-01 -3.8043783923392188e-01 -5.6688713858222062e-01  -3.5866300633558879e-01 -2.9572583655327045e-01 -5.4827558602630688e-01  3.5928609927990746e-01 -1.9697725723979501e-01 -3.2532271833387738e-01  4.0374659227374049e-01 -6.5824321921478232e-02 -3.0044325053170878e-01  3.9123927120281649e-01 -1.5263841524596813e-01 -2.5443192278784194e-01  4.0253623733293459e-01 1.5239493399462262e-01 -3.4580532117058199e-01  4.0568858195148205e-01 -1.9129731973504825e-04 -3.4274051508907960e-01  3.8493315684841528e-01 5.0780027989147318e-02 -3.9007952103199983e-01  1.4933905204502992e-01 -5.1002625068392038e-01 -2.8144545739713595e-01  2.2841521418382446e-01 -4.1745991926918186e-01 -3.1478510040066809e-01  2.5048744554283953e-01 -3.6505623773764762e-01 -3.5971030286931099e-01  2.0902056904513402e-01 -3.7417927133161077e-01 -4.2462342752301491e-01  2.5471366734465095e-01 -4.2555445383708318e-01 -2.6157277345390872e-01  -3.9690276875796826e-01 -4.8650179982911285e-01 -8.0982471372706921e-02  -3.4710799884817728e-01 -5.3035460517095245e-01 -1.5379120539938707e-01  -2.8834200341462812e-01 -5.9722939230496186e-01 -9.8142262802816294e-02  2.0771049313842252e-01 -4.9763125269656017e-01 -2.0437673324446920e-01  -3.3301182805648616e-01 -4.0581579247614907e-01 -5.1910334837575112e-01  -1.6130509728059050e-01 -6.5577173255766341e-01 -9.7440609564946670e-02  -4.6614070000419658e-02 6.3388155152487202e-01 -1.5764281627472784e-01  -1.7897048947782115e-02 6.2071645156513289e-01 -1.1396500093356123e-01  3.1397690161719849e-01 4.6267179353978072e-01 -5.0664942703883997e-02  -3.4482430813650883e-01 -5.7940849079139634e-01 -2.5390391649040962e-02  -1.3389371624792598e-01 5.7934226198229677e-01 -1.1507922948581638e-01  3.8596149105591943e-01 2.4156968320234737e-01 -8.1163598156079791e-02  3.8995199656463547e-01 2.2967408682900158e-02 -6.4602017216175867e-02  -2.3780459331430678e-01 -6.5346858462291213e-01 -3.4316935387375652e-02  -4.2673067506966800e-01 -3.9407817773833781e-01 -3.8360602663836268e-01  5.2906745246649206e-02 6.6113593122467262e-01 -1.7450918377696351e-01  3.9239839371024515e-01 1.4091982452858521e-03 -2.7531125456736415e-03  -3.3264410670615624e-01 -1.4473014513998098e-01 -5.4669474543407492e-01  -3.6420347107741713e-01 -3.8563384448928636e-02 -4.7326008523790841e-01  -2.8594962677467789e-01 5.1002563048055435e-02 -4.8712120596258812e-01  3.7190701076099653e-01 -1.5543749549720104e-01 -7.9649667271990097e-03  -3.2543430140490559e-01 1.1466106110823014e-01 -4.1301746800407996e-01  3.1834785702095902e-01 -3.5640570965432777e-01 -2.1689110160579672e-01  3.4326303344805426e-01 -3.1444865755306367e-01 -1.6096924267077614e-01  2.8813234921720532e-01 -4.1561818558881447e-01 -1.5910421981122935e-01  3.0828892305142780e-01 -3.7936980158202283e-01 -9.7669925569202107e-02  1.8509767678958880e-01 4.9263684489131698e-01 -3.9197204807719438e-01  3.2704146365226194e-01 4.4261348905324682e-01 -3.0712329216104595e-01  2.9247419119757317e-01 4.0307602032211443e-01 -3.8644957825360227e-01  2.4723452146981192e-01 5.5686044490915287e-01 -2.8324149801555004e-01  -1.6810285569436456e-01 5.4006694810991984e-01 -4.7923812679397028e-02  -5.2412905063174413e-02 5.9207170508506346e-01 -6.1608017528524579e-02  3.3751181323164314e-01 4.9164254537814150e-01 -2.2870268867593893e-01  3.9995730084829278e-01 2.7563349357216799e-01 -2.9748471219763245e-01  3.6099321862573741e-01 4.0914707662360128e-01 -1.4936102109898955e-01  3.0366646638673855e-01 5.0016725303397946e-01 -1.1914201691744675e-01  -2.3209996870373950e-01 4.2431002300129517e-01 -2.4211387611185686e-01  -2.1430660050651884e-01 5.0066249945847352e-01 -1.8503908883567366e-01  -3.0911828358370680e-01 3.3846136964480877e-01 -2.2506935391933153e-01  -4.1755156054100584e-01 2.6668412497536198e-01 -4.0071581143316840e-02  2.3359504127381697e-01 -5.1057570414488007e-01 -4.2391803758489430e-02  1.5925954960179878e-01 -5.9597333088776749e-01 -9.2061063828372137e-03  4.2205985646694960e-01 8.6934769620697905e-02 -2.8984840030022363e-01  -1.7677790181789241e-01 3.3500192931916817e-01 -4.1210770728894108e-01  -2.3333221194374659e-01 3.0848135661226178e-01 -3.6900667544546528e-01  3.5329342237871153e-01 3.9122894963976623e-01 -9.0025268904112707e-02  4.0595850516456650e-01 2.1075522255842657e-01 -1.4292547751980181e-01  4.0192869558193128e-01 3.2311203177991649e-01 -1.7142886932049461e-01  3.7136547225994698e-01 4.2912572402115767e-01 -1.9035384435949382e-01  -2.4266244712878313e-01 4.9816264228356183e-01 -9.0519820440604179e-02  3.1884424288762608e-01 5.2035667156745991e-01 -1.7821772346889969e-01  -1.3510420010391447e-01 -4.1214307337337891e-01 -5.7407304158844563e-01  -7.9363849271401905e-03 -3.3522972342492552e-01 -5.8464028700657289e-01  8.1536805627118458e-03 -4.1866369910698764e-01 -5.4106296545320509e-01  1.2886460168728869e-01 -3.3325084021753248e-01 -5.2799162537939959e-01  -4.9010543562188195e-02 -6.2739759992853550e-01 -1.7612701962462343e-01  4.4032256122872586e-02 -5.7847240609513551e-01 -2.4286234820422056e-01  9.8371657342182853e-02 -5.8833697485130942e-01 -1.4977011679335533e-01  4.2060230279226357e-01 1.6536080857094258e-02 -1.9426788515717736e-01  -1.5561937807477588e-01 1.4726528170892583e-01 -5.3565979404268871e-01  -7.3360424147993347e-02 1.3160975479934431e-01 -5.6255628151633741e-01  -1.4159758632742975e-01 1.6044060099734705e-02 -5.8131935231812759e-01  -6.8103384283761337e-02 -4.0728167047962109e-02 -6.0485241433147663e-01  3.6667586585851808e-01 -2.6138784192251430e-01 -2.3302799579417671e-01  3.9248207964482906e-01 -1.8171424436126918e-01 -1.9380972290533457e-01  3.2159309402731473e-01 -3.0164023849977362e-01 -2.9307169354104634e-01  -1.8886255899140333e-01 5.5252666398595573e-01 -1.4589629279062144e-01  2.1278351550472255e-01 -5.0920034473914622e-01 -1.1244502703098935e-01  1.2291708546304368e-01 -6.0621820026960549e-01 -6.3061326921668867e-02  -2.6147066981855860e-01 1.9831664099815402e-01 -4.2877545744256773e-01  -1.9503818000865591e-01 2.1247319766338468e-01 -4.7453019115811068e-01  4.9003538267698717e-02 -6.6054688157891339e-01 -2.4508829353936647e-02  3.7533642921058558e-01 -1.2510743816991615e-01 -5.3865697109394761e-02  3.5506917631889806e-01 -2.5307002857897593e-01 -5.8884008548876245e-02  -2.5426754685336464e-02 -6.6426640915498636e-01 -7.7346755280082599e-02  -1.0857097759572366e-01 6.0173097235782225e-01 -1.7244735183187948e-01  1.8662580438688126e-01 4.0516794695508945e-01 -4.6106747811152993e-01  2.9164143317502289e-01 3.3257471356972346e-01 -4.2852085329501716e-01  1.8685186927724398e-01 3.0168883429120374e-01 -4.9951197125363150e-01  1.1450494907939360e-01 5.5289769780312037e-01 -3.4769307225271540e-01  -4.3316220588276194e-01 9.2341943416423766e-02 -2.0455048266822543e-01  -4.5858172440136541e-01 -1.8073986518482171e-02 -1.9720853455892054e-01  -3.8557539551889802e-01 -4.1436083628022097e-01 -4.5133549527160843e-01  -4.2600016578233973e-01 -2.8356836562054011e-01 -4.8805712084952252e-01  -4.0690015221644682e-01 -1.6640722666538393e-01 -4.9232352864980566e-01  -5.7777984540146092e-02 4.6519153979830224e-01 -3.8360482779555138e-01  -2.5865104605052716e-02 4.3598548846595814e-01 -4.3155904403011408e-01  -1.1364251672783918e-01 3.5907254487869311e-01 -4.4171864987349180e-01  3.6604182986207080e-02 4.3927179204854749e-01 -4.5545349025518822e-01  4.3190670732293962e-01 1.2833018144409319e-01 -2.0681796762032670e-01  4.2268897182040804e-01 1.5365828427921996e-02 -2.3621311397302788e-01  -2.5735410885262300e-01 3.2896947488567874e-01 -2.9829504025316944e-01  3.6001891918386481e-01 -1.5158205040586015e-01 -3.7093033968632483e-01  -8.2272554344179211e-02 3.2649038306514444e-01 -4.8977410839384561e-01  3.0182633696316841e-01 -2.8442539647976545e-01 -3.7793471051989502e-01  -3.0700741233643125e-01 4.3528863968849502e-01 -1.3062654878002347e-01  -3.1859876221372913e-01 2.0240905751027496e-01 -3.3055074067911761e-01  -2.1964970317797414e-01 8.8608412812774276e-02 -5.1601240280006699e-01  -2.2738425513007302e-01 -3.1818639619244249e-02 -5.6192660153579910e-01  1.2843301637405749e-01 -3.9814169023832890e-01 -4.8877498585505297e-01  2.6356443441125743e-01 -2.6983907400558182e-01 -4.4861340414904238e-01  -3.4283219347394550e-01 3.8847579988310665e-01 -6.1942768872150861e-02  -6.0330213298687298e-02 -2.0607575119188454e-01 -6.1693495958565348e-01  3.5208019516718708e-01 -9.7740827552288412e-02 -4.0894183636047554e-01  1.8340210279836272e-01 -1.2949668223583999e-01 -5.5602401888392239e-01  2.1130134457410177e-01 -2.3820684884279764e-01 -5.1333358209665225e-01  1.2070084846736819e-01 -2.6280529098760746e-01 -5.6000159941844541e-01  -3.6102396117186175e-01 7.7378821930253097e-02 -3.7785583948855850e-01  -3.3834382394852358e-01 3.6503997174620928e-01 -1.6140155821003691e-01  5.1623592758858118e-02 3.2104323170171450e-01 -5.2181401497077551e-01  9.2048641968003830e-02 4.2225912715575775e-01 -4.7650756599779104e-01  -3.7542599645047872e-02 3.0872459847804967e-01 -5.2109744419085924e-01  3.7812722717263561e-02 1.9753659614673533e-01 -5.3543184768214458e-01  1.1255729045315967e-01 1.6010072441671044e-01 -5.2389415461013289e-01  3.6595334994363637e-01 2.7959411583413790e-01 -3.6794434505709961e-01  3.5382021435863376e-01 3.5370458854269216e-01 -3.3956321461666628e-01  -4.1529449738649077e-01 2.1034915815166683e-01 -1.5571438134248836e-01  -2.7733108431923087e-01 4.5557850856378795e-01 -1.6498134064980591e-01  4.1954704486885552e-01 -6.7462176031823418e-02 -2.1597128785241709e-01  9.3334623915840742e-04 5.6098372795446654e-02 -5.7573216274030703e-01  1.3498168738296637e-01 6.3569755283314428e-03 -5.4716728795748693e-01  5.9443918841066840e-02 -9.4737009646256365e-02 -5.9069852254291177e-01  3.3360426348437000e-01 1.9297897572395259e-01 -4.3048664456561092e-01  2.3209299939179223e-01 5.5725359700690778e-02 -4.9811929814755024e-01  2.2949810026128656e-01 1.7396038982031811e-01 -4.8341141895880529e-01  3.3349123977056311e-01 3.8855912750789076e-02 -4.5048112252916100e-01  2.8896504584211324e-01 -1.3451202002717397e-01 -4.7768151970995826e-01  2.6894553178481206e-01 -3.1925624664597897e-02 -4.9760860174843830e-01  5.8596660834835092e-02 -2.1567345162849169e-01 -5.9168155986931359e-01  -6.5587596098308040e-02 -4.6583371876166962e-01 -8.8727047134165252e-02  -1.6181828403769891e-01 -4.5173033056017436e-01 -8.3179667899290308e-02  1.8826442764889068e-01 3.1887915695244662e-01 -1.6354229041011739e-01  2.3117556202881681e-01 2.3187181587296421e-01 -1.4477729849027787e-01  2.1982426952133299e-01 2.6706376442283136e-01 -1.7827246038967379e-01  1.8209250974992855e-01 -1.4373272064305020e-01 -5.0383419112079081e-02  1.7655562384361526e-01 -1.8064475636158470e-01 -8.4