<?xml version="1.0"?>
<VTKFile type="UnstructuredGrid"  version="0.1"  >
<UnstructuredGrid>
<Piece  NumberOfPoints="611" NumberOfCells="1825">
<Points>
<DataArray  type="Float64"  NumberOfComponents="3"  format="ascii">0.2622633315931147 2.424750324655242 -1.330535271095517e-15  0.1781562526957357 -2.646835820689708 1.142790533381507e-17  -0.4549934318102974 2.426590650765917 -1.320965297039965e-15  -1.078512292627055 2.078555451400016 -8.843738380941052e-16  -1.531262922783926 1.521484892350711 -8.76600274714084e-16  -1.730654802358476 0.8291399136083211 -8.79432356913771e-16  -1.732001699867896 0.1107062034487074 -4.492521334519564e-16  -1.501563943223249 -0.5606478612291542 -4.597233900677685e-16  -1.024851370297096 -1.081153256670896 -6.910234439899106e-18  -0.3933070686121148 -1.392669831688942 -2.432550278737473e-18  0.3091489663358274 -1.449656324290498 8.650149865327498e-18  0.992243468121469 -1.253103467586218 -6.695139377738664e-18  1.557464450913822 -0.8228968436047936 -1.779060660154818e-18  1.935183155297309 -0.221466621543923 -4.433976318922276e-16  2.066580004965295 0.4753192485369975 -4.423925864186768e-16  1.913430495565932 1.16819205433966 -8.844090146044149e-16  1.520389780234044 1.758926429483002 -8.686075069399904e-16  0.9534188712091479 2.206522892982143 -1.325490088876718e-15  0.9373633959874377 -2.555421847118941 -6.800279607212039e-18  1.644037696687557 -2.255822933263386 -1.720050387235182e-17  2.254440969016453 -1.788581512927142 6.326683998995247e-18  2.735860782160878 -1.188326818522088 1.492781749120215e-18  3.058969862526836 -0.4913567805280726 -4.418580008362404e-16  3.20479028234287 0.2679227435331018 -4.569043035731703e-16  3.133411727528858 1.043127568938122 -8.807939111853184e-16  2.802250392091742 1.749711834698501 -8.903535663542459e-16  2.255589701500432 2.304209910750845 -1.327390223253442e-15  1.592343450388521 2.693968855334824 -1.320196205150322e-15  0.8747338353121921 2.940968700998974 -1.316353631257129e-15  0.1304018031362671 3.092212610702652 -1.305647541856929e-15  -0.6355052239794707 3.084870316116159 -1.301489611580239e-15  -1.354903068900855 2.815257085680392 -1.314783802733114e-15  -1.9581122587635 2.342458389873398 -1.308789151722394e-15  -2.406663899900566 1.718771923484451 -8.572155985050449e-16  -2.683296590175029 1.003095729301293 -8.640823315544867e-16  -2.792340002635869 0.242397624929109 -4.486452692098883e-16  -2.67648696849623 -0.5179364877478054 -4.463953074458462e-16  -2.369702173405066 -1.219918307930666 -9.046874621381283e-18  -1.898536320824491 -1.820332973060362 1.276945969753142e-17  -1.289290893054357 -2.279516684862345 -6.201595133162478e-18  -0.5804710582402908 -2.562108231877866 -1.80178089207092e-17  -1.966024870467288 0.2286650047059057 -0.5895358351951715  -1.908600825033508 -0.3757377982420356 -0.6286492587742435  -1.153927314243085 2.017449887247227 -0.845395693065272  -0.6822788204496064 2.318917225253245 -0.6745807437116687  -1.794482469900537 1.158456287167259 -0.6409801661663369  2.238574039667406 0.8268539637298884 -1.555652351970107  2.063982869451169 1.305014935554633 -1.082962523222679  2.22048955087665 0.7456167918474381 -0.6524705087329439  2.339959205321239 0.2636744805693507 -1.3068266963573  2.288429435363549 0.2616173926714356 -1.951441422503751  -1.397158218538457 1.67025976013125 -1.498919386289178  -1.526151590500801 1.644107856522738 -0.7408499562038634  -0.8783133392331818 2.051422206352229 -1.422794524445446  2.211129171961494 -0.5163917843527461 -1.593219702186813  1.827892426010042 1.436665686321996 -1.849926356206827  1.182568331342705 1.856293374841015 -2.01199562410963  1.598383113895036 1.84319290513677 -1.068419474477467  1.910239227336178 1.448680445340398 -0.5340890208886182  -1.823530057165668 -1.295880142400404 -2.956776528113982  -1.897590586256782 -1.230048783572781 -2.4062796790916  -2.106069295804108 -0.8248156526319473 -2.843279339904991  2.183239481654685 0.2120068814358621 -2.605829996971275  2.19514712138364 -0.3351320248235947 -2.314529580868814  0.821796192296729 2.1689213132967 -1.44809873809079  -1.20594556478674 -1.790568604018788 -1.526340463269947  -0.6818061718579789 -1.755959070998644 -0.7355062143202988  -1.261458980166871 -1.469090094844509 -0.8041656504477733  0.1217077446794439 -1.970560352483832 -1.032164859202261  -0.3720052459801567 -2.08496449700893 -1.557625753042105  2.223486228231977 -0.012588340990352 -0.6967328320005401  -1.603792157036372 -0.9732286479208271 -0.6069707044285687  1.416928117635203 -1.281147016447747 -0.6398163786719566  1.812325875711147 -1.236144563290422 -1.368905152980767  1.95392236005131 -0.7182693977528187 -0.7364089864754834  -1.999728697822231 0.6165958327556295 -0.9607462854812793  -2.153729548720492 -0.1484309783386378 -1.347440633063704  -2.057600893224043 -0.9137745432124988 -1.91775798468824  -0.09194148707728855 2.466305563388667 -0.5506557967568455  -0.3200682999539992 2.285543048835937 -1.297624576382724  0.6667813449294298 -1.691935581148614 -0.6486753197737248  -0.0125336468507389 -1.683382366273609 -0.4144344642030671  -1.827482002219085 -0.7001044229558043 -4.412948978596686  -2.142984058289849 -0.4483504681504642 -3.686527756222856  -2.033912460208096 -0.1068333598225494 -4.497568579972614  1.17675762487617 2.15028005551598 -0.6698281306228073  0.8030165757121256 -1.985368701600132 -1.433825127654514  0.1811325176665311 2.130121355369495 -1.884913572102177  -0.2960017542873598 1.98189191938231 -2.597246278045553  -0.522486256039507 2.041213996729511 -1.940465997105641  -1.438045856875183 0.8955901114174374 -5.617971828125934  -1.732132441167307 1.072308528528876 -4.710378801031033  -1.18194579363331 1.425868854535944 -5.16410609002522  0.5877929835704151 2.390120047507218 -0.7110372415504184  -1.714299642687952 -1.285882649687654 -1.335052546848201  2.348753948183633 0.358118833713148 -5.232093455862779  2.395128812249515 -0.09269372858644982 -5.494111705571981  2.409486600068987 0.3418686766522122 -5.958296296978058  0.8348662966480693 -1.871112081383817 -5.487977502421347  1.453313561762582 -1.708780864253288 -5.02056141495658  0.9634903544589752 -2.025640258991662 -4.599193132845884  1.404833066828673 -1.831015682881059 -4.153824009370103  2.293389047165157 -0.001715973117610636 -4.794634769507677  1.902285717654373 0.9068801913343556 -6.864828707010186  1.764099567506292 1.235164514516826 -6.146347756556174  2.20571923706332 0.7505260593249193 -6.327312900957504  1.417542117562105 1.496159588812448 -2.69020335456841  2.005036486943868 0.945268807878177 -2.395652576868259  -2.085866886778951 0.5125821241720728 -4.455575623721761  -2.059930941124771 0.9198466414292162 -4.011274394692934  0.6098613174766963 1.892192429064457 -2.57365381921469  -1.807447239311002 0.3264984721190813 -5.152433997708302  -1.070929367815789 1.812068600986176 -2.251274225765327  -1.600131686750976 1.432948680881319 -2.126857407118769  -1.860794901212434 1.090180987342487 -1.41247110421584  1.311702559515373 -1.660926709247973 -1.23114709945575  -0.7930696117125153 0.2937994740200616 -6.787828405685163  -1.074304927493277 -0.2769266775521646 -6.367550966471632  -1.21230931800847 0.3860579990904414 -6.272111560872915  2.155886012984783 0.8625361331776109 -5.583558186389139  -2.148666713745471 0.4372471879305323 -1.779778482646561  -0.8637231453167443 1.858068319924132 -3.914473834422668  -0.2963112209126995 1.917335792127603 -4.131043012828613  -0.7414608352474352 1.775383441477697 -4.64704238820966  -2.25860139869789 -0.1878753347990328 -2.161158661654058  -2.320054084225724 -0.06821050406161652 -2.941432583975616  1.961380929078573 -1.158621644399931 -2.23520747296017  0.9882241349133561 -2.119034139906664 -2.268653758488692  1.532903602845959 -1.686201032481578 -1.856260532001947  -0.2792836999199499 1.946841878224993 -3.457458060611616  2.057189680673953 -0.7567944492209794 -2.91416076682954  0.5171466849812599 -2.305826499817882 -2.899154666544358  -0.1820056808992296 -2.261882754748968 -2.527596006106  0.006888615640129624 -2.328064047883855 -3.427372264067835  -0.4491412121736248 1.724081532242589 -5.425151824533896  -1.502229820048712 0.0840062173051421 -5.765228240405932  1.777579349037204 1.037506566567826 -3.382398386816173  1.280627280623846 1.498491792829621 -3.764532456407027  -1.991128532561223 0.9113842016297563 -2.096972575638204  -0.9170335755336614 1.866203738314067 -3.086387362314578  -0.1105680515953241 -1.132349559541438 -6.715600528024406  -0.3183896644856623 -1.481882197833318 -5.956705189945519  -0.7221791701922459 -0.9102568980176822 -6.344692199298416  -1.466934191860628 1.604508435457031 -2.89281078661906  2.118593920276944 -0.2146714976379021 -3.183520769934415  0.3358363900086211 -2.191100142012423 -1.920619589423594  1.157757081859646 -2.070333688987553 -3.268601160202182  1.567378177905173 -1.734109329532377 -2.730478888890731  -1.385902745925102 1.662200597890995 -3.722690970511836  1.865500159077213 -1.249950460841359 -3.186795749945087  2.082548274006114 0.405867308669541 -3.408787753534436  2.152361318077108 -0.1191813319066 -4.031160403562412  2.166846259369863 0.4699384893810813 -4.222044295122441  0.2116111269373966 2.331941689154071 -1.249365641892429  -0.8723500635499051 -2.036608785301434 -2.306395851839181  -1.980425278372957 -0.79004471448237 -1.196082173600084  -1.873985704438164 1.211211674883754 -2.671799421599333  -2.255813247293185 0.2798364938327332 -3.748848789287892  -1.733708229150017 -1.396601781879896 -1.922468786557174  -1.497375156768618 -1.669194571219742 -2.495694023057948  2.030841158904074 -0.7703472524081149 -3.77419089921872  0.6858525167793499 -2.231529027885645 -3.938629366386122  -2.226473555185609 0.4726539559188951 -2.45366297319938  -0.9519202634634507 -1.17015773848914 -5.596293561146213  0.1239016226303712 -2.241910846807887 -4.081191206585347  -0.436153223656397 -2.090381034587458 -4.167969327500743  0.3008232255973377 -2.109805994335276 -4.715434034886915  -1.538533005667432 -1.188710876
[...]
<PointData  Vectors="f_3577878-0"> 
<DataArray  type="Float64"  Name="f_3577878-0"  NumberOfComponents="3" format="ascii">4.6106301086740138e-02 3.1271651831278219e-01 0.0000000000000000e+00  -1.0311609085709283e-02 -2.1364402574069544e-01 0.0000000000000000e+00  -5.1056924955325128e-02 2.9461705952623257e-01 0.0000000000000000e+00  -1.4658978133610290e-01 2.5659217299483739e-01 0.0000000000000000e+00  -2.2415001721778582e-01 1.9174271634661147e-01 0.0000000000000000e+00  -2.8004522174300467e-01 1.0485513333286686e-01 0.0000000000000000e+00  -2.9567628335766394e-01 3.0470102756318860e-03 0.0000000000000000e+00  -2.7636300175622963e-01 -1.0779528283814978e-01 0.0000000000000000e+00  -2.1985578064067909e-01 -2.1223840418033327e-01 0.0000000000000000e+00  -1.2950508409332617e-01 -2.8453019316416400e-01 0.0000000000000000e+00  -1.9142317177779637e-02 -3.1389928720094007e-01 0.0000000000000000e+00  8.8278738323359987e-02 -2.9055432677152726e-01 0.0000000000000000e+00  1.7500999295532815e-01 -2.2553989007829922e-01 0.0000000000000000e+00  2.2808617437411996e-01 -1.3016555017265918e-01 0.0000000000000000e+00  2.4516635809982712e-01 -1.7958563220910804e-02 0.0000000000000000e+00  2.3199395182040691e-01 9.7534618269610449e-02 0.0000000000000000e+00  1.9412087506428291e-01 2.0527667374755990e-01 0.0000000000000000e+00  1.3149000638028926e-01 2.8032467055471738e-01 0.0000000000000000e+00  4.2649895170165104e-02 -1.9736033204205228e-01 0.0000000000000000e+00  8.7252510435870179e-02 -1.6955463841450630e-01 0.0000000000000000e+00  1.1895031957557069e-01 -1.3164775663571307e-01 0.0000000000000000e+00  1.3796957364349763e-01 -8.6808313460924366e-02 0.0000000000000000e+00  1.4292158843373440e-01 -3.5966068867313176e-02 0.0000000000000000e+00  1.3637891753066758e-01 7.8673825340170225e-03 0.0000000000000000e+00  1.2776405882751257e-01 4.1532207541515272e-02 0.0000000000000000e+00  1.2589139594497989e-01 7.7580461236706158e-02 0.0000000000000000e+00  1.2440614381191016e-01 1.2743035193842539e-01 0.0000000000000000e+00  1.0192735523389644e-01 1.8646916125166429e-01 0.0000000000000000e+00  4.9196864045332779e-02 2.3083330311213418e-01 0.0000000000000000e+00  -1.7275567652759019e-02 2.3248852580262822e-01 0.0000000000000000e+00  -7.1451717745550730e-02 2.0177224900908913e-01 0.0000000000000000e+00  -1.1225336414041297e-01 1.6839187278134393e-01 0.0000000000000000e+00  -1.4638084070293322e-01 1.3155795273622214e-01 0.0000000000000000e+00  -1.7215647330234829e-01 9.1902376341522540e-02 0.0000000000000000e+00  -1.9160194021609819e-01 4.6766610734732143e-02 0.0000000000000000e+00  -1.9408213381528203e-01 -3.6380380605702273e-03 0.0000000000000000e+00  -1.9069970545425430e-01 -5.1559394033559733e-02 0.0000000000000000e+00  -1.7629412080004206e-01 -1.0118821384681777e-01 0.0000000000000000e+00  -1.4847567820540361e-01 -1.4652864352877989e-01 0.0000000000000000e+00  -1.1006785924594192e-01 -1.8260086665649553e-01 0.0000000000000000e+00  -6.2461661049347056e-02 -2.0680006759522254e-01 0.0000000000000000e+00  -2.8651419046767046e-01 1.3173242301065457e-02 2.0962499356529671e-03  -2.7923622943232818e-01 -6.9070408443414749e-02 8.2879147650898183e-03  -1.5419762141399698e-01 2.3592254155402237e-01 -3.2807963334399511e-02  -9.4182982248346439e-02 2.7473939288691146e-01 -2.8632675110186911e-02  -2.5056220413915836e-01 1.3165879818929763e-01 -9.9388792791318611e-03  2.2518603488754224e-01 7.9879788848201225e-02 -4.9968887541451255e-02  2.0543904420854411e-01 1.3158787567154115e-01 -3.2525727173480241e-02  2.3466259180305332e-01 4.7525623086809868e-02 -8.3192969841561701e-03  2.4041391758830277e-01 -1.5756471118983477e-03 -3.1569618424834224e-02  2.4421442852924197e-01 1.8066288897546173e-02 -6.0378961646844954e-02  -1.7391089871334756e-01 2.0686240170735981e-01 -5.1734502567803473e-02  -2.0553951463082551e-01 1.9141902354788806e-01 -2.0711182133352806e-02  -1.1374766681548468e-01 2.5890599969810840e-01 -5.9541599635328589e-02  2.3954375029779551e-01 -9.1665402734520979e-02 -3.6425024902505668e-02  1.8571470863972075e-01 1.7818250859369278e-01 -7.2500618822575774e-02  1.2649235663867001e-01 2.5926433395291859e-01 -8.7004220948212710e-02  1.6336249589542598e-01 2.1605724960034106e-01 -4.0678385692258692e-02  2.0719554419552741e-01 1.5192220576940493e-01 -8.2397488053260141e-03  -2.2286556911652122e-01 -1.7593217148450468e-01 -1.1644415657377058e-01  -2.2565152428064178e-01 -1.6085057269773881e-01 -8.4630862621153533e-02  -2.4186457266055825e-01 -1.1853744145088423e-01 -1.0935197205396234e-01  2.5307803468908219e-01 3.0624512900732391e-02 -8.1032101165223885e-02  2.5636755762866087e-01 -4.8062159189292041e-02 -6.8450114032033937e-02  8.4358687359839965e-02 2.8530683806547941e-01 -6.7029085815030212e-02  -1.6489562278619932e-01 -2.3815221439194165e-01 -2.9327382086325265e-02  -1.2723285515171562e-01 -2.7796846529510283e-01 1.0123440146634331e-02  -1.9635994265405304e-01 -2.2522583707432353e-01 8.8126849015993103e-03  -2.0866858096011926e-02 -3.0038126589024983e-01 3.8507086263346365e-03  -7.7854704443575257e-02 -2.8553479704406320e-01 -2.4296098971669802e-02  2.4181757041024382e-01 -5.9452542611680197e-02 -3.6389620303615687e-03  -2.4783473512896864e-01 -1.5964578952496158e-01 1.2992010825720176e-02  1.5333551463075609e-01 -2.4632618389475952e-01 9.4085791871267865e-03  1.9287690288305451e-01 -1.8848968399687238e-01 -1.7420474012703212e-02  2.1836390289258500e-01 -1.5830240075040822e-01 6.0017623173282749e-04  -2.6715509550368888e-01 6.9519364057327268e-02 -1.3720095309189408e-02  -2.6408007855935062e-01 -2.4136699265023282e-02 -2.4486933749596426e-02  -2.4032654098236580e-01 -1.1637979776323829e-01 -5.7055220521848055e-02  -1.6303154509687740e-02 3.0213809678506531e-01 -2.3863788286579944e-02  -4.7624004797030120e-02 2.9020885636707300e-01 -6.0064782658738457e-02  5.1979385784095472e-02 -3.0179700457578618e-01 1.4559500898284294e-02  -4.9334838700809125e-02 -3.1263444729023626e-01 1.7308296744686844e-02  -2.3049678529106066e-01 -1.3393363383229356e-01 -1.9468203485778848e-01  -2.4161324883990964e-01 -9.2327772283905485e-02 -1.5374884199895869e-01  -2.2386514432342780e-01 -6.1538363418294786e-02 -1.9023464882164529e-01  1.3069598503666877e-01 2.6269448634493925e-01 -2.3977841322373739e-02  6.1233767221121511e-02 -2.7706712224423763e-01 -1.3921090899200976e-02  1.4836071934131265e-02 3.0240552823189215e-01 -8.4965364690303510e-02  -2.5911812286743548e-02 2.9352913916783929e-01 -9.6663518511591814e-02  -6.4350445655873417e-02 2.8307616744158703e-01 -7.9556720916275137e-02  -1.5364893167049518e-01 6.0496142792158897e-02 -2.1478664509892495e-01  -1.6492971215593633e-01 9.4281463091113391e-02 -1.8139572796383499e-01  -1.2180738867250195e-01 1.5252722810162081e-01 -1.8932369279039843e-01  6.3766862193817678e-02 2.9840882871801128e-01 -2.9909292741694037e-02  -2.2166256871320633e-01 -1.7277034664424035e-01 -1.9596545812183102e-02  2.1802815097320688e-01 5.8717442728226175e-02 -1.2564323401253000e-01  2.1536148408290137e-01 4.1965345274136171e-03 -1.3264681834016134e-01  1.8866385584645787e-01 5.5338788629835912e-02 -1.5189451016734346e-01  4.7425644857386914e-02 -2.0206058331441501e-01 -1.8944771972841740e-01  1.2641558261793742e-01 -1.7122107513749218e-01 -1.5434111067239142e-01  7.5000820833716744e-02 -2.0996788901376137e-01 -1.5530086047711683e-01  1.3822749036887658e-01 -1.8566431899154853e-01 -1.2911135607598404e-01  2.4024593068524427e-01 1.3843711355857281e-02 -1.1080186398630419e-01  1.0417683705104884e-01 1.1349649035197133e-01 -2.0061774777694150e-01  1.2652449217942796e-01 1.6609730694661487e-01 -1.7777435552493689e-01  1.5313561496307762e-01 1.0338959421416520e-01 -1.7285771563760505e-01  1.6187236940105082e-01 2.3093710639279913e-01 -9.9501776999399313e-02  2.1942144865365895e-01 1.2736872554295250e-01 -8.4766759374732284e-02  -1.9765622262086158e-01 1.6675993903252518e-02 -1.7781725973931620e-01  -1.8512016084499941e-01 7.5091455618054873e-02 -1.5048509491285647e-01  7.3805138327086836e-02 2.9466572058059520e-01 -1.0087059971778185e-01  -1.9324858283258498e-01 -1.0585757850506798e-02 -2.1097754861020995e-01  -1.1724795431577886e-01 2.4360666805801037e-01 -7.8813508666130627e-02  -1.7801103701572707e-01 1.8274531232784877e-01 -6.6252952273252924e-02  -2.2898922309322178e-01 1.3133532226300645e-01 -3.7723872538274472e-02  1.2899756721170066e-01 -2.5050849823334614e-01 -5.9420888169158049e-03  -1.1695582699409773e-01 -1.1102412140183444e-02 -2.6374910904210691e-01  -1.4930805702263616e-01 -8.0124465202806028e-02 -2.6169838616498964e-01  -1.4764020270426825e-01 -4.1442685876587901e-03 -2.4682783725151927e-01  1.8344911346604420e-01 1.2583565296183860e-01 -1.4430404205678993e-01  -2.4824014830522290e-01 4.9763127951849055e-02 -4.6923448939602645e-02  -7.3687913710762915e-02 2.4407075005390996e-01 -1.3457284759421645e-01  -1.8678844001587279e-02 2.7467148652444107e-01 -1.3783998586203022e-01  -7.2473011589858582e-02 2.3014231139161287e-01 -1.6298980422060505e-01  -2.4945316519183380e-01 -3.0554177221755578e-02 -6.6816212280373821e-02  -2.3881385618294143e-01 -3.0537622201249254e-02 -1.0810936903813298e-01  2.1972129552470371e-01 -1.4447127066770768e-01 -5.9298833604026588e-02  8.0859366272847497e-02 -2.4757426444890951e-01 -5.8307687692785284e-02  1.5166826662124611e-01 -2.1673612197428879e-01 -3.8601326137462859e-02  -1.4103961039459614e-02 2.8871148584467515e-01 -1.1636906282813504e-01  2.5275060358387286e-01 -8.4335725747850351e-02 -8.2934319477044133e-02  2.6381978409801700e-02 -2.5724694101391354e-01 -9.0333566680309424e-02  -5.5453367486004518e-02 -2.7630712068833707e-01 -7.4370747280137914e-02  -3.2539814981594792e-02 -2.6048751467402192e-01 -1.2167205864101228e-01  -5.9085250831109389e-02 2.1030479827457660e-01 -1.8931670223856739e-01  -1.8074712307431942e-01 -4.3209956438866326e-02 -2.3643302165586150e-01  2.0810594158449289e-01 1.6684727963482365e-01 -9.9352905994534405e-02  1.5045474511786303e-01 2.4565600892714790e-01 -1.1027679707265979e-01  -2.2062649022450853e-01 1.0938590222125769e-01 -6.1681763596337792e-02  -8.3430579053257042e-02 2.5466857246295399e-01 -1.0380312037409528e-01  -6.6054881374222649e-02 -1.5093984908758104e-01 -2.5842943495733189e-01  -8.8021933869899288e-02 -2.0099891406180598e-01 -2.3910896909349941e-01  -1.2783982213640269e-01 -1.4555472552326335e-01 -2.6092874778536235e-01  -1.4070839239778504e-01 2.0067636961987792e-01 -9.4565735188950811e-02  2.6434504904125461e-01 -1.4795052823751603e-02 -8.9348753574785278e-02  2.4234242046376315e-03 -2.8147950241646613e-01 -3.9640137473342905e-02  1.0870347688805403e-01 -2.1930512759615484e-01 -1.0253218851065431e-01  1.6547962763929472e-01 -1.9292985865770723e-01 -7.8206636092492690e-02  -1.2200090134651413e-01 1.9764308883370038e-01 -1.2932038245383443e-01  2.2294753404005893e-01 -1.3607608179697311e-01 -9.1054121452899470e-02  2.4740163242460469e-01 6.9173177630908064e-02 -9.2857288049903244e-02  2.5854824180400832e-01 -9.6512249477186324e-04 -9.6511937847091597e-02  2.3773395221537930e-01 7.5831064765303338e-02 -1.0141235791947897e-01  1.5591079663406830e-02 3.0169622778033367e-01 -5.9827565966347127e-02  -1.2947103441722949e-01 -2.6164126260238846e-01 -6.9296201540137548e-02  -2.5147180887468074e-01 -1.0720816388128218e-01 -1.5065394468406986e-02  -1.8814635350534389e-01 1.4219324131959427e-01 -8.4103278690804181e-02  -2.2080230212795529e-01 -3.4342522731982805e-03 -1.4586722283753425e-01  -2.1189827921773191e-01 -1.8109016988966517e-01 -5.4967991582524044e-02  -1.9003391455354601e-01 -2.1618931974583269e-01 -8.7055961857615091e-02  2.5054580571557061e-01 -7.7452373959390600e-02 -9.8121122020889295e-02  4.6789545510762552e-02 -2.3222154686950869e-01 -1.3617074774815846e-01  -2.3117829445961588e-01 4.8936318239833208e-02 -7.7282167111415292e-02  -1.5857572366100769e-01 -1.8510341669128041e-01 -2.3974968397609150e-01  -2.1937934197097119e-02 -2.4794488983692023e-01 -1.5192612633760993e-01  -9.0795666516994375e-02 -2.5381150017555548e-01 -1.6783261607055522e-01  -6.0467542947082063e-03 -2.3474797151801299e-01 -1.7607344439068465e-01  -2.1297845292404236e-01 -1.8630039622854411e-01 -1.9399785757387430e-01  -1.7736243424601744e-01 -2.2852705509486404e-01 -1.7342979159346261e-01  -2.2918843212331094e-01 -1.6847630652543341e-01 -1.5813104664165564e-01  2.3186631198032703e-01 1.1444794274066188e-01 -9.2000085731099371e-02  9.9984905427867934e-02 -4.3640925039963811e-03 -2.0444942497449378e-01  8.5815653184488236e-02 -6.3822693837237460e-02 -2.0986079393361706e-01  5.8174346878203900e-02 -2.4488891895676993e-02 -2.1990257415298295e-01  1.1968976882825381e-01 2.5398309112545603e-01 -1.3372329247592776e-01  6.3491407881914055e-02 2.9063983933130833e-01 -1.2438606382841096e-01  1.3664705222663970e-01 -4.1029840639311546e-02 -1.8652235008226528e-01  -1.5702374155331270e-01 -2.4468049238787767e-01 -1.2271808723363574e-01  -9.8297941770443278e-02 -2.6269586377149601e-01 -1.1770408402349908e-01  -1.6568844565857588e-01 1.4493367157523171e-01 -1.1811466878569644e-01  -1.9666449903185729e-01 8.3435379394411438e-02 -1.1957536090502137e-01  -2.1660977165063511e-01 4.7326686678962622e-02 -1.0569159355678494e-01  1.6894153310558827e-01 -1.8124929766230863e-01 -1.0298877717824517e-01  -1.9898849849638406e-01 -2.1183047374875102e-01 -1.3528408132844813e-01  -5.2546843500056506e-02 2.5666164934818974e-02 -2.5773247014691680e-01  -3.6973801340613103e-03 5.7741400301140652e-02 -2.3839764130982091e-01  -6.2313937104414921e-03 -3.2818172090170288e-02 -2.4895451968111915e-01  -1.3615510570541979e-02 2.0378274910632047e-01 -2.0843729413433110e-01  -7.3722013993848520e-02 1.4671533928935665e-01 -2.2476407147054681e-01  -4.0398129063859083e-02 1.4218495105044665e-01 -2.3443962889736564e-01  -2.0140843844999073e-01 -1.6609110864738794e-01 -2.2397320607427940e-01  -1.7489200055606394e-01 -2.1049409987038667e-01 -2.1368427685257499e-01  1.9941279767302314e-01 1.7068130600975046e-01 -1.0896977320644811e-01  -2.9165193343402424e-02 1.0250989291404225e-01 -2.4450796699199392e-01  6.5047128201798948e-02 1.6711584740983987e-01 -2.0869915870035205e-01  1.1000964533873180e-01 2.8274299853897999e-01 -1.0845831816237993e-01  -1.2908250564836909e-01 -2.2040604157416158e-01 -2.2265051787920756e-01  -1.3544623764807204e-01 -2.3633722062749693e-01 -2.0018865444694151e-01  -2.7790492297012477e-02 -2.2085390988351800e-01 -2.0972254112919725e-01  -8.0360911475786626e-02 -2.3725178359051127e-01 -2.0514579661502383e-01  2.0512944623233698e-01 -1.3859498018718105e-01 -1.1026682487225069e-01  1.9932395082284091e-01 -1.2183659737486786e-01 -1.2566526892379437e-01  -5.0213371261726824e-03 2.6723428399431126e-01 -1.5637502158326277e-01  -9.1534488022819264e-03 -1.8699524133459430e-01 -2.2850185872075793e-01  -1.5479215896059628e-01 1.3419453697631556e-01 -1.5208835347687938e-01  1.6051588656070959e-01 -1.2328798543873459e-01 -1.5576080834516165e-01  2.1195326772104398e-01 -6.2078886867976517e-02 -1.3177048586250947e-01  3.1142510786487863e-02 1.2318815281053867e-01 -2.2518856785567870e-01  2.2377090262664284e-01 1.2884982304857090e-01 -1.0035973955406077e-01  1.3218277882818924e-01 2.0970361021844483e-01 -1.5727276783180535e-01  6.3445978432910694e-02 2.1726321569284790e-01 -1.9015228022233546e-01  1.0611997963910446e-02 -1.3230148363304403e-01 -2.3998847557319028e-01  6.5336692844345873e-02 -1.1729194757835180e-01 -2.1917621324722250e-01  5.5959946890067565e-02 -1.6153185563961395e-01 -2.1021138099301842e-01  1.7153738905399712e-01 1.9036951706795074e-01 -1.3237346112205078e-01  3.1433997743552745e-02 -7.7663785644813063e-02 -2.4010968751588291e-01  7.6438011079729043e-02 2.9060035380293697e-01 -8.9457657300658092e-02  -1.2180090911043903e-01 1.7817373547886117e-01 -1.6159682277092149e-01  -1.8047013658013489e-01 -1.2219612405711539e-01 -2.4623929414204740e-01  -2.0979747143736768e-01 -9.7775657929574267e-02 -2.2343158090182624e-01  -1.1154311312217591e-01 1.2842764365970727e-01 -2.1263421177264880e-01  -1.1953363630389019e-01 7.1967046915590596e-02 -2.3894609753927906e-01  -1.3127434021307074e-01 -2.5088625577360663e-01 -1.4700168294803839e-01  2.1382366914096418e-01 1.1200217233114557e-01 -1.1799547522603783e-01  4.2722834090686945e-02 3.0206189732183691e-01 -1.0951805348495453e-01  1.0309312063275072e-01 -1.5871955141382713e-01 -1.8127685168006927e-01  1.1461208640446194e-01 -1.1070385304886383e-01 -1.9020026532953130e-01  2.4316634913103694e-01 -5.2127087569739564e-02 -1.0854074985424815e-01  1.7277652241873158e-02 2.4767314341652619e-01 -1.7734727425156485e-01  9.8076597380769466e-03 1.7214411785774344e-01 -2.2302467272946133e-01  -9.3518675490588857e-02 -8.8695461196630049e-02 -2.7338356615163123e-01  -8.6330873589456694e-02 -1.0875233250322119e-02 -2.6967832000869230e-01  -8.2653374646870240e-02 7.5214221906205594e-02 -2.5397667902320570e-01  9.7972763559870099e-02 4.9094054312633986e-02 -2.0216165094852026e-01  5.1549726617221660e-02 8.0676692622339813e-02 -2.1980310574434028e-01  4.2883341018292893e-02 3.1221771673481627e-02 -2.1916792436888602e-01  1.6494034665511229e-01 -7.5082360419146815e-02 -1.6477292108783828e-01  -5.5251047388790227e-02 -4.3154737561844188e-02 -2.6870530332071257e-01  -3.1403036464068224e-02 -9.2848232275286657e-02 -2.6234618217162525e-01  1.6184128384947138e-01 2.2010352604701952e-01 -1.2017282039096501e-01  5.7983344064332157e-02 2.7205427972042523e-01 -1.4723236745477059e-01  1.8350522275467460e-01 -1.6822481608896094e-02 -1.5792497372643224e-01  1.4537730132717566e-01 3.9317823821180008e-02 -1.8128594759098096e-01  7.8492673201795815e-02 2.4980317711704639e-01 -1.6243953035052550e-01  1.1590444954587700e-01 -1.1405612902722508e-01 -3.1093722627430986e-02  8.6443470781511850e-02 -1.5006009034293949e-01 -4.0879210755559510e-02  -1.3941690803605836e-01 -1.3626232122502610e-01 -4.0709281036872394e-02  1.3137945955409733e-01 -6.2512599572432576e-02 -6.6005926316811903e-02  1.0399591101101334e-01 -1.0902296106001781e-01 -6.6885088049625521e-02  1.1046625442556075e-01 -9.7258464157438454e-02 -8.7189066738508778e-02  7.9060066311262819e-02 -1.2517000267282710e-01 -8.3676392286146817e-02  -3.1125841906874074e-02 6.1288535128162167e-02 -1.9536385668550466e-01  -1.6957447483296882e-02 4.0682575995470240e-02 -2.0466411575702553e-01  -3.9958365742909750e-02 3.2643728301404454e-02 -1.9979493929274855e-01  -7.9771940388438559e-02 -8.1704123004173818e-02 -2.2233116767272626e-01  -5.2247427390535423e-02 -1.0027159400194133e-01 -2.2356496330164682e-01  -7.7250908159657405e-02 -1.0627242563635352e-01 -2.1430375084932310e-01  -4.0568278649381825e-02 -7.3457326417191840e-02 -2.3231861397392986e-01  2.2437397751452939e-02 -1.7191669777143162e-01 -7.2298108572536740e-02  5.2616490736140865e-02 -1.7763412264003506e-01 -4.1439181839418478e-02  1.6659220528243871e-02 -1.9388131249505886e-01 -3.9886231369777925e-02  -2.1106957957975212e-02 1.9959900449882481e-02 -2.0889123893513684e-01  1.1237772575761328e-01 1.3145452308537695e-01 -4.3734094275480605e-02  1.0561069694794158e-01 1.1997561634337403e-01 -5.4514018529054041e-02  8.2847414140914663e-02 1.5337415826855119e-01 -6.0615686414995894e-02  -9.1870162644213577e-02 6.0534169772562547e-02 -1.1406197407977571e-01  -1.0278329910134912e-01 5.4783212151917081e-02 -1.0293748290754998e-01  -9.1745012153657962e-02 7.7248287113187958e-02 -1.0478761595459959e-01  -1.5658210206533280e-01 6.5016655265558179e-02 -5.0841432128497982e-02  -9.9793030866000568e-02 4.2420596097310970e-02 -1.1583604246584885e-01  -4.5321166187414337e-02 -4.5889270134657309e-02 -2.3231061595088034e-01  -7.2949835563433957e-02 -5.3405774393528907e-02 -2.2535428972748459e-01  -6.3506164716854635e-02 -1.6851306081272797e-02 -2.2021438325943940e-01  1.2306944230896964e-01 4.3949623764304085e-02 -2.6248897704110277e-02  1.1851828248946640e-01 4.1593457863153008e-02 -4.1345309910315396e-02  1.2031853024675850e-01 6.6505650968801691e-02 -3.6487278792372506e-02  -4.3474030361335375e-02 -1.6866568127903553e-01