<?xml version="1.0"?>
<VTKFile type="UnstructuredGrid"  version="0.1"  >
<UnstructuredGrid>
<Piece  NumberOfPoints="662" NumberOfCells="1979">
<Points>
<DataArray  type="Float64"  NumberOfComponents="3"  format="ascii">1.939668907167406 0.4832998677904595 -6.705992292476318e-16  2.904719062963678 0.140121281040176 -6.597108421842188e-16  1.773618646358342 1.007904066586952 -8.748301254657036e-16  1.38590688488415 1.414015423864706 -1.092042481972421e-15  0.8497941226215783 1.675150135916522 -1.319593362540066e-15  0.2683716903725958 1.832470489964657 -1.311864799707526e-15  -0.3325328281414399 1.913888552413549 -1.316152717762081e-15  -0.9221690667690202 1.865383287951702 -1.322412093525932e-15  -1.438699694820747 1.59217409720649 -1.103835301925409e-15  -1.841325853422632 1.167679579142342 -1.124246568673438e-15  -2.059929700339659 0.629261868334974 -8.781847245713054e-16  -2.113834623153909 0.06147601466916196 -6.536123599514618e-16  -1.909793170166949 -0.4659048613159549 -6.522385026152704e-16  -1.534413074123489 -0.9001584386827931 -4.041521438574091e-16  -1.052700482272928 -1.216369632100878 -4.313576886385374e-16  -0.4884676759428468 -1.348438151925043 -2.159299518465738e-16  0.09481771680386319 -1.344108374369577 -2.032725014132015e-16  0.6593349882497169 -1.214947819121751 -2.16899774742309e-16  1.160301007779671 -0.9379312832920428 -4.394539664962803e-16  1.57394443650919 -0.5435753053344872 -6.567429304211635e-16  1.860809044487292 -0.0589413571981722 -6.716153602007122e-16  2.879015969207859 0.784559431052261 -8.846723518302415e-16  2.61692295286442 1.376951101681301 -1.109456546829886e-15  2.18027139173596 1.849559154215652 -1.318034531246938e-15  1.641872259908312 2.18667870763089 -1.322721207556234e-15  1.060885244448391 2.417832220214251 -1.554028062669648e-15  0.4609438828373957 2.565070412076004 -1.541190747795351e-15  -0.1500817914874372 2.664483566464508 -1.52634668456991e-15  -0.7793996478584251 2.662979583608994 -1.535230279798901e-15  -1.395403265208458 2.502050928309073 -1.549909797857323e-15  -1.951632344937997 2.182059454821602 -1.33107818842076e-15  -2.410293457570623 1.739879492643491 -1.106632240541764e-15  -2.756322704684169 1.205976208235342 -1.126499599323112e-15  -2.978547213564258 0.6048588967184046 -8.69738990038629e-16  -3.00575070937241 -0.04446060399867195 -6.220718824339333e-16  -2.827900989780287 -0.6601286478833199 -6.278492611266653e-16  -2.49575952533795 -1.206066985668201 -4.291326513369899e-16  -2.040827192878202 -1.651904540506941 -2.35779195403737e-16  -1.49993570779537 -1.97530928951439 -2.112315364945506e-16  -0.9076215289610678 -2.180125465476427 2.262299381356306e-17  -0.2906083500533561 -2.262159432025343 1.160995582446841e-17  0.3291018946900992 -2.252151814955808 4.273700843763008e-17  0.9353948567919784 -2.11729723296181 2.008846605905483e-17  1.499401409011397 -1.855281210227097 -2.221072977628234e-16  1.997012602658761 -1.48220966932317 -2.121680981140059e-16  2.407547384620369 -1.01494377377033 -4.584199831641474e-16  2.719175179451566 -0.4718902780325944 -6.496753673641404e-16  1.881438265296384 -0.4039094625553613 -0.4218041214407096  2.08783337604424 -0.1730967790453969 -0.6272920547548896  1.326555647234829 1.369971639277286 -1.511485578708314  1.782837083024919 1.093152431193724 -1.139358166884848  1.708014417233653 1.106733571943046 -1.688351853791696  1.493614822150352 1.358372197740991 -0.8036170099866305  -1.416821605354257 -1.402439186668991 -1.844952445099141  -1.665553064170605 -1.215002671768582 -1.167133189438907  -1.835369603093909 -1.016935960627401 -1.638737467470506  -2.009249452783387 -0.7797852854910136 -1.23679007153581  -0.4732316412665732 1.443715614202496 -4.867368583289131  0.06217991375961899 1.667975486455713 -4.747094284642933  0.002442780944986664 1.452495053668007 -5.161632862577981  2.27162387926081 0.2018210140570123 -1.848921491996805  2.154081041752255 0.598725639484482 -2.240982657044552  2.067153226418509 0.7171676852545268 -1.535440465283434  2.290174225685035 0.2511483186050422 -2.606979761378327  2.253504945809218 -0.2965513827327914 -1.636249794700565  2.155120614915205 -0.3430354783342165 -1.093788444621844  2.083864609042502 -0.7402577540410303 -1.386437393112439  1.964205770062635 -0.6272301557915069 -0.8082303628231863  -1.755990537726426 0.2264518039295844 -3.466795116895885  -1.850480384083689 -0.2064269974695599 -2.933856378960309  -2.076321915519993 0.3887519618668991 -2.828143653776141  -1.554240213547154 -0.3304713423588789 -3.434808926358253  2.2900977822805 -0.2718649546684456 -2.28177631303736  2.245021708236679 0.1576090988267642 -1.131151368316006  -0.8048074578185583 -1.773497331928512 -1.871503532952488  -1.00958644568988 -1.544701159505043 -2.416642264916895  1.268635559004343 -1.765237550154727 -2.66436792580385  1.559377759702562 -1.569841878681018 -2.239052284515962  1.141267336955654 -1.829235921529231 -2.084858018370031  -0.0587308168619748 -1.928486736909185 -1.343544262290381  0.1083458286982805 -1.697701870022915 -0.692598054320881  -0.335479521508684 -1.670377994693477 -0.6302673630280408  1.673396396249965 -1.485847523704823 -2.796441865386547  1.043037222828985 -1.809620885307157 -1.561912151124199  0.7145026657989347 -1.972082392435895 -1.934484213685292  0.5601754156309767 -1.946404911781205 -1.505029241514869  -2.198720636813664 0.3782103968182389 -0.6611630069663466  2.083868961878327 0.7479073430755128 -0.7135873892399462  2.113302807753891 0.2426298749646618 -0.4717114503638803  -2.082331518385421 -0.1115885321429037 -2.388563439144638  -2.212304013805183 -0.04921101492644514 -0.5366283392127085  -0.1883836391427025 1.841776024006908 -0.5591674870874342  0.2529853265311447 1.762104609502051 -0.8006868665806306  -2.088995262852356 -0.390042890298179 -0.4059699367305379  2.034593881172537 -1.084803958286388 -3.013080853192256  1.832792561265525 -1.320612226146467 -3.457770980999643  2.134865478707683 -0.9525730535488178 -3.560411028300104  0.7613475378865565 -1.947179849702215 -2.497116186344933  0.2929252619130521 -2.004122068929104 -1.989758415544485  0.1698534782531133 -1.956012476364137 -2.545388828235442  -2.214415595743832 0.3520430171767381 -2.070482910348006  0.7973732076820781 1.680014247758473 -0.5111328311623814  1.876929007382409 -1.151014023947755 -4.107375738342741  -0.2903187761478176 -1.821382148452718 -2.742211810002103  0.07552499291017387 -1.843970028501012 -3.123891329001418  0.6411826393961367 1.732102098441172 -3.813784659275641  1.177740070744099 1.601166471378388 -3.691454330433796  1.149180156216704 1.632518229129174 -4.198661247482405  0.9296390361467715 1.619286253088938 -3.186385719685654  1.324425160411201 -1.505852458073379 -1.114223185229539  0.8593025947285911 -1.733560988948288 -1.10179242661118  1.143692200350305 1.528665163213763 -0.8287956590140784  -0.9264910708312757 -0.6985385838741028 -4.163688898384162  -0.8271046867747476 -1.22537478751859 -3.551001697432924  -1.243582168158041 -0.7924563696847067 -3.499862733046674  0.7005102604360595 1.613482181955295 -1.314252493933611  -0.491851945692072 -1.07699538529854 -4.265122050178332  2.19214226000142 -0.7360546662644154 -2.642377448582932  1.896367957792579 -1.23338631679537 -2.317838665406601  2.235273135120422 -0.7120050674405185 -3.161523108511209  1.84335413398624 -1.235137794204862 -1.72379819625462  1.433095187258569 -1.619714838603263 -1.726621233855268  0.5329811012753974 -1.6752237514853 -3.840190671569889  0.4129714209042615 -1.486036901550462 -4.237954115101364  0.9257346078403352 -1.510355589943705 -4.190333329606646  -1.098396804154745 -1.259508517299024 -2.994725564932141  -1.416557664197607 -1.279966931294615 -0.5574068999443558  -0.7033629490746913 -1.586385447709481 -2.912124998680981  -2.152432487188581 -0.4673278673025274 -0.8797625455902904  -1.879754049446762 -0.8918370301851393 -0.6478886847831902  -2.068146806237184 0.9625468406428841 -1.798016338599227  -2.241330423615263 0.3163841124498088 -1.391327601907383  -2.104917670091427 0.6975148496350196 -1.118731896599101  -1.179016811790626 -1.581781645719149 -1.210254991958623  0.1106203378649855 -1.627249537391564 -3.79609812343097  2.581180062231983 0.3960933799636094 -4.96063847468157  2.453811522393645 0.862864931355016 -5.188604093760013  2.428908793419787 0.8335284262888738 -4.584052129487648  2.593250299315291 0.4728595172920915 -5.473555816354182  1.645407449110611 -0.7908036515288508 -0.4696041151574744  2.345141035400619 -0.527302148491213 -3.602300825782756  2.218805485254149 -0.7871089690893498 -4.012330435605183  -0.3038766091731069 1.730145377394381 -4.230720976397584  0.8416936343526977 1.523894430449528 -2.037482207119442  -2.196160695285199 -0.2723959355189063 -1.338289100358051  -0.9845147453172198 1.749849585823078 -2.801504644651832  -0.6350788571199623 1.791074302835603 -2.151590730077588  -0.4939213824598742 1.788329303862827 -2.84619807763303  -0.1428496229900705 1.752698842408576 -2.452770683311562  -1.370150855064402 0.4143998823044712 -4.33992371582945  -1.309072181265954 1.032679187630272 -4.313910649511991  -1.197959099844166 0.7004626239390821 -4.628479076404403  1.049256799858908 -0.5925478030073627 -6.162555171016029  1.372924224703648 -0.2481768901424482 -6.57822140725108  1.720761248557667 -0.5760301857898618 -6.133101777795346  2.069734062280955 -0.1464727607106927 -6.548198720570686  -1.668221044451609 1.309586727409415 -0.4913285855242745  -1.306264324250688 1.5715269479678 -0.8272236608654149  -1.809818306593328 1.163166940829651 -1.131417861470176  1.751932585266428 1.173329361099784 -0.5220331862307658  -0.6738834598626331 -1.783925465981705 -1.164052631819306  -0.8916683622187024 -1.560625118303493 -0.6235243408141347  1.883606443106131 0.9643532325526861 -2.231537139025034  2.162979178173745 0.8099244571686034 -2.970275854237913  1.692575725107902 1.229821023133591 -2.731131251429945  1.485048925318503 1.263774552766487 -2.161304293063252  1.153243295625336 1.47565365113397 -2.60060519
[...]
<PointData  Vectors="f_1195622-0"> 
<DataArray  type="Float64"  Name="f_1195622-0"  NumberOfComponents="3" format="ascii">2.8570615060760529e-01 -5.2876410011543321e-02 0.0000000000000000e+00  1.0428669597651949e-01 -7.2990718266584514e-02 0.0000000000000000e+00  2.8774090538437758e-01 1.4238060451501330e-01 0.0000000000000000e+00  2.6200804492104762e-01 3.4826907363975285e-01 0.0000000000000000e+00  2.0512943753584581e-01 5.2314897766185320e-01 0.0000000000000000e+00  1.0325846120418994e-01 6.1731437224483732e-01 0.0000000000000000e+00  -2.0591408687843284e-02 6.2244665216876827e-01 0.0000000000000000e+00  -1.5036151039510504e-01 5.5185136390552625e-01 0.0000000000000000e+00  -2.6139311291754419e-01 4.5073437174796843e-01 0.0000000000000000e+00  -3.4881914776190165e-01 3.2397867010797599e-01 0.0000000000000000e+00  -4.1752188069932666e-01 1.7867465576496935e-01 0.0000000000000000e+00  -4.5686595991979623e-01 1.2104759782357423e-02 0.0000000000000000e+00  -4.7914389248905664e-01 -1.7978729019624121e-01 0.0000000000000000e+00  -4.6075118018709915e-01 -3.7327146740523387e-01 0.0000000000000000e+00  -3.8820937992641141e-01 -5.3952367660273581e-01 0.0000000000000000e+00  -2.6789245847053700e-01 -6.5950680553360641e-01 0.0000000000000000e+00  -1.2648335966427934e-01 -7.0047252941141946e-01 0.0000000000000000e+00  1.5201448577755053e-02 -6.6741312398964892e-01 0.0000000000000000e+00  1.3910243137302919e-01 -5.6897641182377667e-01 0.0000000000000000e+00  2.2732893112029837e-01 -4.2259398047709235e-01 0.0000000000000000e+00  2.7030698118632857e-01 -2.4517881700427022e-01 0.0000000000000000e+00  1.1082919110026186e-01 -2.6781523503383583e-02 0.0000000000000000e+00  1.4081109370394448e-01 3.3921862314341918e-02 0.0000000000000000e+00  1.7942913205395186e-01 1.2867345327421620e-01 0.0000000000000000e+00  1.8700231653096372e-01 2.6134655411222713e-01 0.0000000000000000e+00  1.3812817825615331e-01 3.8484704386131757e-01 0.0000000000000000e+00  4.4724888240464264e-02 4.6260414035864245e-01 0.0000000000000000e+00  -6.6137184611743824e-02 4.6242518233183255e-01 0.0000000000000000e+00  -1.5593506345304500e-01 4.0391846410931692e-01 0.0000000000000000e+00  -2.1122377812576548e-01 3.2076096023310757e-01 0.0000000000000000e+00  -2.3572584144953940e-01 2.4263488490981239e-01 0.0000000000000000e+00  -2.4994194843543510e-01 1.6272773785741293e-01 0.0000000000000000e+00  -2.5254779783741160e-01 8.9979313683042295e-02 0.0000000000000000e+00  -2.5281976607824269e-01 2.8872071038451293e-02 0.0000000000000000e+00  -2.6785852500865287e-01 -8.7395391318775325e-03 0.0000000000000000e+00  -2.9332465716930395e-01 -7.9540702743235547e-02 0.0000000000000000e+00  -3.2475218486612267e-01 -1.6563726885319394e-01 0.0000000000000000e+00  -3.3041949402674947e-01 -2.6817195129300986e-01 0.0000000000000000e+00  -3.0743153160529740e-01 -3.7827920284858296e-01 0.0000000000000000e+00  -2.4908935146605121e-01 -4.6663203286912530e-01 0.0000000000000000e+00  -1.6499323305269162e-01 -5.2798948538646340e-01 0.0000000000000000e+00  -6.8061417373693145e-02 -5.2701191433366956e-01 0.0000000000000000e+00  1.8594488954671397e-02 -4.8618060257599727e-01 0.0000000000000000e+00  8.6179975888105970e-02 -4.1862363069626202e-01 0.0000000000000000e+00  1.2569437551984491e-01 -3.2849921505780527e-01 0.0000000000000000e+00  1.4275506051943920e-01 -2.3154438204115529e-01 0.0000000000000000e+00  1.2827948083246879e-01 -1.3807334338794916e-01 0.0000000000000000e+00  2.7537907717113180e-01 -3.0410495076951838e-01 7.1093333418159295e-03  2.8890357114350668e-01 -1.9377141933840977e-01 -1.6659512898154257e-02  2.5725439667868505e-01 4.7446737354379426e-01 -1.3030399576609650e-01  2.9583515821631468e-01 2.8727072092301514e-01 -8.8105285648857098e-02  3.0738485513470126e-01 3.4991292719976524e-01 -1.3135735615037414e-01  2.6486194786232448e-01 3.7931807556684904e-01 -6.5007244092461725e-02  -3.9439456993403377e-01 -4.6217443127967295e-01 -2.2685092260486053e-01  -4.2755469089536746e-01 -4.0021086277142498e-01 -1.1946385226645556e-01  -4.4301592196810141e-01 -3.4268944497634907e-01 -1.9233811634933767e-01  -4.5766793055023564e-01 -2.6448815787582786e-01 -1.3005591100297917e-01  -1.5174709169503817e-01 2.5140928573344090e-01 -4.8737899667477463e-01  -6.3649569198998265e-02 3.9709228283247744e-01 -4.6959120454830150e-01  -9.3348032963883956e-02 3.0167768919464916e-01 -5.2000850819874067e-01  3.4902832867857347e-01 2.3971146495583986e-02 -1.2421419623751490e-01  3.5860510342585933e-01 1.6612129163136805e-01 -1.5491170399898069e-01  3.2612636538937961e-01 1.7084727350625922e-01 -1.0822941499003751e-01  3.8742410233189345e-01 6.8229614422391574e-02 -1.7843533861478211e-01  3.3626359235365810e-01 -1.3317336224465834e-01 -1.0656268876121058e-01  3.0819524560536882e-01 -1.9329332682721059e-01 -5.4925278129028324e-02  3.0259897246496242e-01 -2.7570899711269192e-01 -8.3228874979570489e-02  2.7913080598757334e-01 -3.0997925990726366e-01 -2.4356313925878562e-02  -3.9759902972960248e-01 -1.2391569870210270e-01 -4.2262473062759126e-01  -4.4655993721307086e-01 -2.1333676308707203e-01 -3.7617737953565450e-01  -4.0450290425089114e-01 -5.0665599032697059e-02 -3.2201274442212929e-01  -4.2431461229789896e-01 -2.6878007929236569e-01 -4.5289050650852292e-01  3.7273294154381414e-01 -8.8926409003000390e-02 -1.6157422739774191e-01  3.1093824113690677e-01 -4.6363046992845054e-02 -6.5787893730795771e-02  -2.9075151078146899e-01 -5.6446499295377239e-01 -2.2220970132767465e-01  -3.3666378861424939e-01 -5.2234309123991685e-01 -3.1380741018548269e-01  1.6161490580522711e-01 -4.7837764285077122e-01 -2.6676513974382932e-01  2.1915396927566047e-01 -4.4281084842758150e-01 -2.0292025895292057e-01  1.2196721461124412e-01 -5.2306849243870179e-01 -2.0087520966771549e-01  -1.4387449317553233e-01 -6.3464793613433856e-01 -1.2199593081736262e-01  -1.0415600688148259e-01 -6.7430750848764609e-01 -2.2746837176183022e-02  -2.0546624631184326e-01 -6.6165171765403163e-01 -2.2885450143234766e-02  2.5334993842084813e-01 -3.9383978972085443e-01 -2.6001811701480804e-01  9.3908383455225897e-02 -5.5864058244261572e-01 -1.2982591380932168e-01  2.4135790807685679e-02 -5.7576155914807847e-01 -1.9468304660188163e-01  -1.3229205079516670e-02 -6.0700552759581750e-01 -1.3422419229887422e-01  -4.3155989664309652e-01 7.5116538118154400e-02 -5.6292045179251834e-02  2.8697650583845730e-01 9.0870949159274100e-02 -3.9147337363604769e-02  2.8826702147255728e-01 -8.3012122315347214e-02 -1.1757476455065743e-02  -4.5597985119807094e-01 -1.5262536439221361e-01 -2.8709032835440307e-01  -4.4922144502654743e-01 -4.1907907254732278e-02 -4.1278800464560970e-02  -1.7674377071654968e-02 6.3814683714664955e-01 -6.0095690417187826e-02  7.2572309203989369e-02 6.4297099423546311e-01 -8.1925349677975656e-02  -4.6689552675936169e-01 -1.4923915255358142e-01 -1.9627963930800085e-02  3.3094188977406808e-01 -2.7769460859674444e-01 -2.5620111698272674e-01  2.8713790001501782e-01 -3.2759773917725199e-01 -3.2327666354731655e-01  3.4821472125128483e-01 -2.2970571515364233e-01 -3.0584354106121575e-01  4.4509418550391165e-02 -5.4833620563130214e-01 -2.6836473515456505e-01  -6.6972436682232350e-02 -6.0141962784951153e-01 -2.1401430715569658e-01  -8.6856922760001232e-02 -5.8481231928531774e-01 -2.9657977771370742e-01  -4.2815859631644437e-01 -1.0439617555031163e-02 -2.2074538976213484e-01  1.7443836011702032e-01 5.6089512568644029e-01 -4.8404535605670124e-02  2.9846822540733536e-01 -2.9255562321418366e-01 -3.8795277162188008e-01  -1.8775199896765918e-01 -5.7473028616405941e-01 -3.4159604535357224e-01  -1.0180509817702420e-01 -5.5686650390729209e-01 -3.7949243019009510e-01  9.6801420672705335e-02 5.8193321136301535e-01 -3.3864007801664553e-01  2.0752681057327357e-01 5.5530768092913185e-01 -3.0621272920024906e-01  1.7934785176105483e-01 5.3734858762221560e-01 -3.6635285501118159e-01  1.7854565282028886e-01 5.9885423104369095e-01 -2.5804857909937784e-01  1.5640518178315935e-01 -5.3113240687871621e-01 -5.7531301366840530e-02  5.5920931031641204e-02 -6.0465143429296342e-01 -6.1988446915459940e-02  2.2430776049444684e-01 4.9351100621390021e-01 -7.4413388319431978e-02  -3.2276089198238139e-01 -3.6562644162197294e-01 -5.4786742501022145e-01  -3.0804846522847679e-01 -4.7219776571520644e-01 -4.7389202237676653e-01  -3.9085904789492487e-01 -3.8288479464873187e-01 -4.7280282189864775e-01  1.5861507487136578e-01 6.1102788944451158e-01 -1.2343763134007585e-01  -2.2423728159637049e-01 -4.3921531474514813e-01 -5.5241293562930904e-01  3.6324756616906129e-01 -2.0023605093286848e-01 -2.0464753551087028e-01  2.9418356398929196e-01 -3.4573683718212850e-01 -1.9446992249246542e-01  3.7639684263801504e-01 -1.7788131721145206e-01 -2.4923963892747672e-01  2.6566342275311100e-01 -3.8202512868336580e-01 -1.2906803974390349e-01  1.8029183789763448e-01 -4.8867496502470531e-01 -1.4331660673192578e-01  1.4876487690004828e-02 -4.9726832330306647e-01 -4.5512188616968774e-01  -6.5403219817295874e-03 -4.7777696548123616e-01 -5.1169344888062807e-01  1.0946281366484030e-01 -4.4625115578628027e-01 -4.7576597890806882e-01  -3.6182439924359672e-01 -4.7294966539204630e-01 -4.0246472248679654e-01  -4.0985495565711078e-01 -4.6457696527336440e-01 -3.2591505631370574e-02  -2.7877526109992107e-01 -5.3752844384270104e-01 -3.8046869441964731e-01  -4.5973443915696138e-01 -1.6430155832631735e-01 -8.0361493379900090e-02  -4.5316908168419695e-01 -3.0178139576434571e-01 -4.7988116932537052e-02  -3.7506221890877189e-01 1.6927549933672256e-01 -1.7100431118160123e-01  -4.3547546937428888e-01 2.6067731881050715e-02 -1.3774167107392807e-01  -4.1142970428287834e-01 1.5028965142145839e-01 -1.0203704756632656e-01  -3.5879189495763064e-01 -5.2213725564991942e-01 -1.2339784684608721e-01  -8.5919547192829640e-02 -5.1560714176649425e-01 -4.7061562334509111e-01  4.0924835478101268e-01 1.2105447266220663e-01 -3.7947483729889064e-01  3.6444201452737196e-01 2.4370732132434481e-01 -4.1225152729460707e-01  3.8444388307111038e-01 2.3296904517079900e-01 -3.4871089377719827e-01  3.8089111989350161e-01 1.5020686765589922e-01 -4.3659430129572174e-01  2.4123001641551459e-01 -4.2521781606615028e-01 7.9978304029907979e-03  3.9184445007662161e-01 -1.2345493873839640e-01 -2.8183044787565448e-01  3.6317382556570893e-01 -1.8897787569326258e-01 -3.4094467077867863e-01  -1.0637117899614920e-01 4.1575562957800927e-01 -4.1440683542797657e-01  1.8850084027555400e-01 6.0703180689412983e-01 -1.7050013046175913e-01  -4.6204998380418671e-01 -1.2844069108985187e-01 -1.4024575477891835e-01  -1.8201018306633890e-01 4.5108093592644871e-01 -2.6841957841277819e-01  -1.1393752630564034e-01 5.7204860300907645e-01 -1.9316000041770748e-01  -9.0904881724235886e-02 5.6038790889139223e-01 -2.6388586105978706e-01  -1.0786046953539297e-02 6.3394142796407738e-01 -2.1577482627965106e-01  -3.1416249070917995e-01 -8.5950236361856530e-02 -4.9959945316617083e-01  -2.5689118590708915e-01 8.1105230649756485e-02 -4.4328227696916983e-01  -2.6314979441619607e-01 -1.0068673424785225e-02 -5.0190223519960120e-01  1.4483017369279502e-01 -2.0566535553465121e-01 -6.2427209207304590e-01  1.9555937366963308e-01 -7.5141680770642122e-02 -6.1755662015162582e-01  2.6469680143833962e-01 -1.5345026448702098e-01 -5.7958623303788082e-01  2.8984305895696538e-01 1.7751917653110991e-02 -5.6095995454478420e-01  -3.3762014473707808e-01 3.6145658551527454e-01 -4.8427547747314399e-02  -2.6665348879764739e-01 4.5967768429203709e-01 -7.8229582007666110e-02  -3.5854973712629851e-01 2.9570656649018545e-01 -1.0023637898861887e-01  2.7853837667716047e-01 2.4862234866891161e-01 -3.0773544777525100e-02  -2.6919601472682175e-01 -6.0217657693320514e-01 -1.0731779353557022e-01  -3.1930887582247569e-01 -5.8681881278176151e-01 -3.2627042576982776e-02  3.3720737127625344e-01 3.0819157957231197e-01 -1.5975471502092703e-01  3.7168491137242332e-01 2.3372699422499110e-01 -2.0487476725582052e-01  3.1663455872579926e-01 4.1504112875424110e-01 -1.9742047910233437e-01  2.9033950706536338e-01 4.5446617685125495e-01 -1.6621096408848982e-01  2.3609912042578382e-01 5.5992635462419149e-01 -2.0074599682313299e-01  -4.6203177995431255e-01 -2.4150556901587397e-01 -2.0187414439326160e-01  -4.4650238519051350e-01 -3.5300884307321700e-01 -2.8375768345103708e-01  9.6076170467892311e-02 -4.9583960286333417e-01 -3.3716689481054246e-01  -3.9868184229189946e-03 -5.4872143911503057e-01 -3.3304924380069134e-01  9.0370774461998732e-03 -5.1602308788013140e-01 -3.9988469625929385e-01  7.6527388310054581e-02 6.6126312349531013e-01 -1.7103854795390835e-01  5.4945742102169771e-02 6.5677630478517823e-01 -1.3058355900155241e-01  -4.9455349510339253e-02 6.2957524792988306e-01 -1.5374494221526244e-01  1.1840068794482084e-01 6.4656984142500229e-01 -2.1539064807401484e-01  2.0747062855348580e-01 -4.1102839346890530e-01 -3.4136437493703192e-01  -4.4757974432589936e-01 -2.2210071926463626e-02 -8.7326472408757030e-02  -3.9659486152091344e-01 2.2556012155782851e-01 -5.0867405832563245e-02  3.0934650732743613e-01 3.5876094884024085e-01 -4.2391907393268718e-01  2.5147775101369313e-01 4.6391387809076090e-01 -3.9170656162374723e-01  3.3900317143694980e-01 3.6495065699131174e-01 -3.4108532470644048e-01  1.9222588913286040e-01 4.4092722287932140e-01 -4.6508873531621886e-01  3.7118960525174538e-01 2.8328489319665873e-01 -2.8014595391615649e-01  -3.2229200038354894e-01 -1.3774924349627005e-02 -4.3795529310905601e-01  3.3552077867409041e-01 -2.3509013302020604e-01 -1.4769499321553098e-01  -2.9883270213563817e-01 3.7075954379026171e-01 -1.4067192730094319e-01  2.4468424933795094e-01 -4.1156925979236969e-01 -4.7040165926432072e-02  1.2197282025084878e-01 4.9598902983623111e-01 -4.3914825600936419e-01  3.1443563655100627e-02 5.1497644420543243e-01 -4.1406466506119272e-01  3.0035100578764989e-01 4.4500954308551616e-01 -2.9808045510238429e-01  6.8822123746037508e-02 -4.1480956113419697e-02 -6.3696924738321614e-01  1.8477128832913478e-01 4.6629782023101217e-02 -5.8671137334248913e-01  -2.6243749141831940e-01 -5.6582008508486226e-01 -3.0221054285849647e-01  -2.3358957165364561e-01 4.2773859062661324e-01 -1.9230239599930921e-01  -1.8783197773823115e-01 5.2574053202294435e-01 -1.3275354583701837e-01  -9.0062165959505475e-02 -2.0114979206398970e-01 -6.4458334079084412e-01  -1.8540870211296878e-01 -2.8732555933028636e-01 -6.2530718847298050e-01  -1.9979932344807291e-01 -1.4872392852134064e-01 -6.0865827442380449e-01  -2.7477841090540917e-01 -2.5893239499633780e-01 -5.9124750742165100e-01  -5.1996257274982707e-02 -6.4698109662590514e-02 -6.4188228961075444e-01  3.1186458584805638e-02 -1.5540276578743198e-01 -6.4779044934032648e-01  -3.3928677663709939e-01 3.0101790268418062e-02 -3.6934638715553547e-01  -3.7612198726389051e-01 -1.6497504963130594e-01 -4.8276008432539108e-01  2.8600688814598142e-02 -2.5368411989964990e-01 -6.3789271005412618e-01  -5.4802872493023826e-02 -3.2595564188064130e-01 -6.3022496362696057e-01  2.1590426806969693e-01 -3.8612059909472585e-01 -4.0510895629820920e-01  2.2253920714175507e-01 3.4659745722781904e-01 -5.1534691695215784e-01  3.2605596176844032e-01 2.5798794356868415e-01 -4.7383842397243681e-01  -1.7824170555770205e-01 -5.9951096536859383e-01 -2.4548845633278654e-01  -5.4896980330882198e-05 -6.6866983051391615e-01 1.9069062326340343e-03  2.5450295073211948e-01 2.4227739783600460e-01 -5.3459771366493170e-01  -2.0741840735796133e-01 2.5452943250107807e-01 -4.1341378759664427e-01  -1.3178455311988646e-01 4.5962919712238831e-01 -3.4066731825444191e-01  -3.1403505051012043e-01 2.7641475805499804e-01 -1.9691818352588927e-01  -2.6939597699480433e-01 2.8720744222816258e-01 -2.7107241609857452e-01  -1.4127939891542371e-01 -3.9249480436148831e-01 -6.0201812497480722e-01  -2.4054800370843363e-01 -3.6027097719227713e-01 -5.8972294165224903e-01  -2.1704117079538295e-02 -4.0307230988066756e-01 -5.9685721162975869e-01  -8.6550121475633054e-02 -4.6413389107485914e-01 -5.5156722216191423e-01  7.1336366126271214e-02 -4.2826838107158122e-01 -5.4534617663008289e-01  4.0237015296059747e-01 -3.7591213019102739e-02 -2.2336694352963266e-01  -4.5726215008350163e-01 -1.1490697470870621e-01 -2.0016101374767900e-01  -5.6256216033547255e-03 6.0965663393052483e-01 -2.7347908979328012e-01  8.9702402869844045e-02 6.2585296554945058e-01 -2.7483256425978581e-01  -2.2595422780388025e-02 5.5321693338566746e-01 -3.4106190521230489e-01  -4.5649117835249864e-01 -2.6558409260400562e-01 -3.2865388254130301e-01  -4.6446375215139135e-01 -2.3409778832717001e-01 -2.6458915303162944e-01  -4.0183790620169933e-02 -6.4259144951703528e-01 -6.4935426774015620e-02  -4.3684629489457694e-01 -3.5032264108572658e-01 -3.9151205827823521e-01  -1.9093375019909042e-01 -4.9806219506868948e-01 -5.0120361211004261e-01  2.1840635901116162e-01 -4.4988383872145743e-01 -9.1857911895215652e-02  -2.0176861192090828e-01 -5.3368529661901021e-01 -4.3603187490898010e-01  2.5442349302215078e-01 -2.9582096951512121e-01 -5.0343383284179444e-01  3.2354064151161765e-01 -2.1807139588696928e-01 -4.5275329580612250e-01  2.9273311681820169e-01 -2.8165970831030984e-01 -4.4391196271350486e-01  3.0692977965861284e-01 -1.8887477457420937e-01 -5.1156113793368496e-01  1.9028003796998683e-01 -5.1415841029549625e-01 -2.5326301862564483e-03  1.0853527133996943e-01 -6.0493260228797008e-01 2.3562072322307467e-03  -1.4398986015808671e-01 5.7674766553097512e-01 -7.0413660645673462e-02  -4.6539497672183246e-02 6.3509471742267176e-01 -1.1044338453784082e-01  2.7209657459600478e-01 5.0250533686716559e-01 -2.4519531329293853e-01  2.0630488436805941e-01 -3.7206782481113343e-01 -4.7766043704411354e-01  3.3742858563685763e-01 3.6617249541107139e-01 -2.4176531915157637e-01  1.1308034683473267e-01 -4.6343338019178570e-01 -4.1134246032939925e-01  -2.1753315343875426e-01 1.0279733094269017e-01 -4.8521390405203629e-01  4.1549174825179203e-01 -1.3730720055080798e-02 -2.7919642431273306e-01  -2.7438527752199943e-01 1.3163523818867853e-01 -3.8940741131688167e-01  4.0216158212384501e-01 -7.9782448421074612e-02 -3.3516055370305442e-01  -4.0211414904423187e-01 -4.4793958813490492e-01 -3.2953922492107945e-01  -3.3619098709943396e-01 1.3307265045208164e-01 -2.7112514943897320e-01  4.1984028439941401e-01 7.4269929206578489e-02 -3.1710774063758884e-01  4.0945867389306501e-01 1.1100936663433994e-01 -2.5092259034865289e-01  1.3014314107191249e-01 2.5092507183572177e-01 -5.7981829357865178e-01  8.8523408419202476e-02 3.5057875224775109e-01 -5.4718539959408374e-01  -7.2268451777977361e-02 2.6411376329804059e-01 -5.5459840311476727e-01  -3.2002534174448073e-02 2.2907349770578211e-01 -5.7957433631326261e-01  -1.0915965869761429e-01 8.8212817903947041e-02 -5.9523022718896412e-01  -3.4105510868293783e-02 8.4192953829511669e-02 -6.1547161473896661e-01  3.6887551572712546e-01 -1.0503073049835683e-01 -4.4467773651591358e-01  4.0475248362463245e-01 -2.5307860771803792e-02 -3.8309278207297714e-01  3.6090740011507977e-01 -1.7039145024554414e-01 -3.9312127482061693e-01  3.9062475249929984e-01 3.3350512908606439e-02 -4.4427656855352488e-01  -1.2051135776874754e-01 -7.3696945425323651e-02 -6.2290720092643070e-01  -1.6298692188398956e-01 1.0377697631938387e-02 -5.8124260915374915e-01  -2.9090951673112514e-01 1.7242324264082065e-01 -3.3248290328024144e-01  -3.9444467713548048e-01 5.2690629567648452e-02 -2.4836593545084576e-01  3.8175259949104938e-03 3.4682321897555196e-01 -5.4187983774236292e-01  6.4284361510261873e-02 8.5546213089744333e-02 -6.0241997548105253e-01  -2.2667845262433292e-01 -6.0088980487222299e-01 -1.8079912567945730e-01  -2.7696774346639003e-01 -1.3182561856085540e-01 -5.6030557937307723e-01  1.7050770934953097e-01 -3.6061899003813663e-01 -5.4188152892455899e-01  2.1088616057647655e-01 -2.7579478050065648e-01 -5.6772563552950395e-01  -2.2496299444050474e-01 3.1761244156688384e-01 -3.3796855215198790e-01  8.3111210284681714e-02 -3.4209884292819531e-01 -6.0017818909216458e-01  8.3790007229567948e-02 4.3191379259184437e-01 -4.9916209205999662e-01  -3.8466165489478882e-01 -2.912240527990