<?xml version="1.0"?>
<VTKFile type="UnstructuredGrid"  version="0.1"  >
<UnstructuredGrid>
<Piece  NumberOfPoints="635" NumberOfCells="1900">
<Points>
<DataArray  type="Float64"  NumberOfComponents="3"  format="ascii">0.3089519925198481 2.113938024867289 -1.289524326340357e-15  1.484617807622961 -2.378158976990484 -2.661819122962347e-17  -0.3469665350673454 2.063912044810112 -1.31417915614422e-15  -0.9260805830955785 1.743043272779243 -1.365318327131574e-15  -1.358018355809791 1.247759883289348 -8.802236180786539e-16  -1.578271170535565 0.6294505148418122 -8.641080268832657e-16  -1.637913337918083 -0.02278449593828202 -4.395618570099973e-16  -1.475514672475057 -0.6408996183858042 -4.264399804517151e-16  -1.094142021949733 -1.149544979762789 -2.969784477027646e-18  -0.524973949830133 -1.454452437746298 -8.368506894434052e-18  0.1180389088969494 -1.568390522919932 1.550169607256649e-17  0.7732841322200709 -1.499622521067508 1.065845799773872e-18  1.375965166574386 -1.230997414571065 1.671480967104767e-17  1.840559868458943 -0.7669175091111167 -9.636575955246285e-19  2.110739312163923 -0.1738138395899148 -4.418935714955847e-16  2.155967001209557 0.473123076279104 -4.547596738963223e-16  1.929114669741511 1.079101496673355 -8.757661654993548e-16  1.523727070835983 1.591606821016631 -8.83869021269056e-16  0.9525300746265598 1.922508943535639 -1.323819887326368e-15  2.093683636832946 -1.959865840665416 2.159606208448445e-17  2.59468516373781 -1.417748050379601 1.984314422775967e-17  2.962662467414106 -0.7776194158303399 7.362061083119202e-18  3.186501746259664 -0.06562919423151772 -4.616586504633238e-16  3.175352919512073 0.6908424913022758 -8.711764404185018e-16  2.850474293237553 1.3744681095178 -8.50750252230725e-16  2.323413573526511 1.903035384267981 -8.710998291672199e-16  1.678226081960692 2.262933221031675 -1.33700843405232e-15  0.996562083293471 2.493520872471503 -1.287941381975767e-15  0.3017522217931661 2.66515814558756 -1.313405513940323e-15  -0.4187406920777597 2.703290659920077 -1.316235106452274e-15  -1.12613636426041 2.520991432935492 -1.322981292337683e-15  -1.755504986189982 2.14429381253946 -1.363485932280384e-15  -2.251481999089708 1.599339251485929 -8.787012066774803e-16  -2.569123076918563 0.9354971552597561 -8.355731623445341e-16  -2.683754486280126 0.2109053772483467 -4.149769429044418e-16  -2.599047536249248 -0.5171596372566101 -4.05239904241168e-16  -2.343287554100943 -1.202490307812993 1.084728904939661e-17  -1.92223398632018 -1.802648541226381 1.902057891961843e-17  -1.347952102982192 -2.260553178397382 3.19757886332254e-17  -0.6740488226686789 -2.55529382401197 1.891933382008131e-17  0.04980109789092453 -2.668231671049999 -4.228708081371471e-18  0.7816246077135638 -2.609595918498613 1.344435662195387e-17  2.470933003425032 0.1869468591497576 -1.128559511419974  2.248279914869825 -0.4414965643052918 -0.6556810763884275  2.40271164560047 -0.4014318208378571 -1.423667573766378  -1.900692252985746 0.1896126696293583 -0.5239490276092783  -2.165803059640365 0.03348686639081512 -1.086342117595748  -1.876247369797186 -0.37241755621195 -0.5106436291851251  -2.1739983662992 -0.5746094885824371 -1.234826801697537  -0.7011527234835411 2.01265217183126 -0.8610219740936895  -0.09199827043001051 2.191860320644118 -0.6509011551178792  -0.01577460882704444 2.086476220748853 -1.26262681128978  1.785165869003071 -0.9847187522849239 -3.874687858734901  1.571096357359945 -1.292333918491851 -4.531201644032101  1.875510965395103 -0.815400066452126 -4.613414271664584  -1.941323485938945 0.6513500122940873 -0.8718972513023359  -2.247715244994266 0.4363781262595355 -1.589758365846286  1.215259764150629 -1.866442368254208 -2.559407691395996  0.6618412882160932 -2.110658454531402 -2.839704510073062  1.115816828505305 -1.831760240464049 -3.226518401069467  -2.249365885972439 1.026311457585052 -3.565110008521867  -2.002094499019818 1.31276639270438 -2.897287831007001  -1.892350505633313 1.500558339343917 -3.456857694438374  2.236038078603486 -0.4924242842645578 -2.20023194076689  1.971994296987248 -0.999219969017772 -2.398616781723775  1.944172438724741 -0.629339934651484 -3.158594735793641  0.3862465214187552 -1.907242898768987 -0.8534929659096495  0.9720934685018354 -1.830397420015148 -1.110543883192318  0.7149315081001302 -1.705145974602754 -0.5083319328779894  2.117440459654289 -1.009467043759036 -1.700629933316262  1.434927484215722 -1.510553592495661 -3.794864318960341  -1.95546479859802 -1.23465973520374 -2.032974565882375  -2.232946929215402 -0.7454236073155208 -1.86890387450611  -2.074793297091234 -0.9855708008444737 -2.679347788182664  -1.981712508515372 -1.105102621782909 -1.383353581532898  2.124703794611045 1.252645330770173 -0.9931152722605626  2.326952105855534 0.7309059646693098 -0.7548229566098166  2.328368850257065 0.8259631309394428 -1.663989788485853  0.6229102539308561 -2.049499517740832 -1.512542833020581  1.27085720804019 -1.871407125231985 -1.745730098155791  -0.1903262683794097 1.991998533369435 -3.296641199861655  0.08080262926916974 1.918316545567176 -3.866169185083476  -0.4921207482022952 1.995569812453727 -3.847823393795422  -0.311241916291755 1.958465587948782 -4.431513082676033  -1.175326850851032 -1.774570969746289 -1.2183400516445  -1.5979707790455 -1.415332323131167 -1.032386915778708  -1.593282397793035 -1.584950012052967 -1.668098744004849  -0.8763454053483566 1.060125662494648 -6.370898569469765  -1.016083204840021 0.4414021302559226 -6.70060306218604  -1.414374070258739 0.7481072225118235 -6.009361234850763  -0.4607187856849242 0.8114885502971108 -7.093212691836917  -1.12972662152587 -1.896770165237598 -1.951557934735388  -0.6273968802034562 -1.998073007469021 -1.274517407128776  -0.218507930244721 -1.873388269517874 -0.7087231947595373  -0.8306718453126283 -1.689399242458029 -0.6224215280917196  1.334440676417014 -1.486271014762495 -0.6506667872258637  1.833533792855145 -1.045396136180391 -0.5512846460705965  2.431251735373253 0.1651891491054601 -1.799746434609181  2.160163711821887 0.5172289077285236 -2.51648259401371  0.6740185544533923 -2.054070445224654 -3.524702306390604  0.2622891188272183 -2.202350990598959 -3.165174536453369  0.1546442448450913 -2.151024079864114 -3.732472387815114  -1.278108881923933 1.604781582341013 -0.5778582748330061  -1.410537266896742 -1.450480572043009 -3.972854897720317  -1.461646600992011 -1.069798477390959 -4.687926152691237  -1.019975174627747 -1.495387906119561 -4.689788711333192  -1.775824057642132 -0.989051240100957 -3.980596287094877  1.273291237235624 1.434836500019627 -5.619789711890538  1.09866245664175 1.361946443792689 -6.231669250180337  0.8389014225716072 1.635452422953936 -5.708734087206972  -2.30012910189562 -0.3940245857458627 -3.129900835943435  -2.43576338383807 0.1672714839938619 -2.952664788626012  -2.316265232183597 0.1427981881061445 -3.739621893307673  -0.3859686563280278 -2.110463153129178 -1.900424198833758  0.4813755707553014 1.493741997115504 -6.295896260987905  0.5245394588554556 1.800277458022457 -5.223453175477168  0.3670444764198156 1.763815176332318 -5.68966558090017  0.05784890312364824 -2.206993113636163 -2.514956782862272  -0.2576700380898833 -2.204554212438762 -3.214562590177423  -0.6270675856376802 -2.135340778988169 -2.614125046699714  0.70422770679852 -2.116342454150272 -2.185703016766394  0.2279588564166274 -2.159835967860624 -1.919164438815315  0.6538083817896675 1.723910791359225 -3.830917811101284  0.4128277887263109 1.843039683962153 -4.572624631346215  0.4495492178998858 1.812458580316717 -3.107935521275368  1.867086292596679 -0.7456921608918737 -5.414540548669112  2.048556568372887 -0.315557864657601 -4.954963250722493  2.046876913111182 -0.1892616814971325 -5.809001928766545  -0.3679758681556392 -2.053633754757055 -3.979186910271191  -0.543142500613004 -1.836099560539049 -4.546878119378137  0.09664014485318179 -1.995482797191821 -4.472391941037671  -2.40829224488499 0.530990889383575 -3.508856763486671  -2.201266328683294 0.6621128826335239 -4.111881326472067  -2.358586244671934 -0.1229243578719143 -1.692763373908834  -2.378969866720799 -0.328670072484623 -2.383521121033632  1.731309616181655 -1.485579105233332 -1.592394551149008  1.483427523054568 -1.61371014268543 -1.259625579403078  -1.6841108849441 1.226339994857787 -1.090085322223814  -1.645233493617054 1.392259949014113 -1.847623565997859  -1.977574163937364 0.9321147624714046 -1.461004520718673  -1.20178757574675 1.694629612520154 -1.2427019789109  -2.132829626775762 0.95627035593379 -2.135305762421437  1.826098994829668 -1.289496117746382 -1.118438146885303  2.169548372891345 -0.8485547266652775 -1.071202922935417  2.328187085056942 0.1881335031575832 -0.5391570102874078  2.100858792412719 0.08038350641804019 -4.528793291675095  2.103360114274222 0.2619129086234924 -5.177716428892232  1.690229335964921 -1.493641663167645 -2.15132275284296  1.626693974607555 -1.320800242684586 -3.022129458469477  -0.8989564357431014 -1.833933831813969 -4.005076046268107  -1.075109034442029 1.831259923967292 -2.685961333763977  -1.526368676187723 1.704861878367332 -3.047792234440923  -1.62423678894999 1.527098686482154 -2.43863967129038  2.032501351606006 -0.3228272076793876 -4.039720075792178  -1.01984804321978 1.746815116236371 -2.044329281931311  1.609641812985932 -1.053395365239778 -5.767841921181662  1.819098581584054 -0.7157813826931645 -6.048823234179549  1.085711087652734 1.950063792567239 -1.438391976092189  0.428263663459318 1.970699559529155 -1.722872080018416  0.6303095363896375 2.161087931860166 -0.8473034946502628  1.5925748542387 -1.19018408939126 -5.167614038698075  -2.411609404735823 0.2575972512089042 -2.323795967399983  1.148731938040663 -1.707547882797055 -4.413385485531035  0.6408762921593796 -1.991720377570453 -4.159156145562933  0.6844866727582971 -1.794744361029273 -5.019312256214755  1.628873840895896 1.19102737934989 -5.185997876217693  1.047588746900136 1.613465093801208 -5.006300824732615  1.464504022753451 1.319244697085619 -4.4
[...]
<PointData  Vectors="f_5739104-0"> 
<DataArray  type="Float64"  Name="f_5739104-0"  NumberOfComponents="3" format="ascii">8.7093600360881138e-02 5.0814068334511997e-01 0.0000000000000000e+00  1.1659208194103854e-01 -3.2102963387251821e-01 0.0000000000000000e+00  -5.1887219661474991e-02 4.9645244005470723e-01 0.0000000000000000e+00  -1.8111786742775965e-01 4.3800388976263077e-01 0.0000000000000000e+00  -2.8959780371158905e-01 3.3238923606802090e-01 0.0000000000000000e+00  -3.6775326827970556e-01 1.9549347843539061e-01 0.0000000000000000e+00  -3.9782376005106651e-01 3.7283126991995791e-02 0.0000000000000000e+00  -3.8218087613376511e-01 -1.3306512856740796e-01 0.0000000000000000e+00  -3.1828133922532303e-01 -2.9984957262625900e-01 0.0000000000000000e+00  -2.0864043454871395e-01 -4.3919699592292355e-01 0.0000000000000000e+00  -7.1527895757127036e-02 -5.1623206836444269e-01 0.0000000000000000e+00  7.3046553418892449e-02 -5.1765749865399502e-01 0.0000000000000000e+00  2.0276450835519502e-01 -4.4854552765669392e-01 0.0000000000000000e+00  2.9847279935562471e-01 -3.2778737866536406e-01 0.0000000000000000e+00  3.5172050478137057e-01 -1.7550961248281641e-01 0.0000000000000000e+00  3.6581639050769510e-01 -8.3051946324752685e-03 0.0000000000000000e+00  3.5276626935926814e-01 1.6630975130673711e-01 0.0000000000000000e+00  2.9734357746517481e-01 3.2227213424787765e-01 0.0000000000000000e+00  2.0642047341591316e-01 4.5470245756053851e-01 0.0000000000000000e+00  1.7591470069543388e-01 -2.6660498028252161e-01 0.0000000000000000e+00  2.0745276000250612e-01 -1.9104045740318926e-01 0.0000000000000000e+00  2.1643838222342718e-01 -1.1031119757244376e-01 0.0000000000000000e+00  2.0688442767279230e-01 -3.7612511227125313e-02 0.0000000000000000e+00  2.0159679056369223e-01 1.2291695190060768e-02 0.0000000000000000e+00  2.1577047235337649e-01 7.5795021173005905e-02 0.0000000000000000e+00  2.2454331753416015e-01 1.6978571045503849e-01 0.0000000000000000e+00  2.0953671781787450e-01 2.8603737275446467e-01 0.0000000000000000e+00  1.3975714719183793e-01 3.8334677539121470e-01 0.0000000000000000e+00  3.6646934452436351e-02 4.1788692528054172e-01 0.0000000000000000e+00  -6.6788380157198082e-02 3.7928241869327878e-01 0.0000000000000000e+00  -1.3954491017290171e-01 3.1698533412089286e-01 0.0000000000000000e+00  -1.8812260922046420e-01 2.4359099554911368e-01 0.0000000000000000e+00  -2.1957821405593983e-01 1.7425308339001186e-01 0.0000000000000000e+00  -2.4271938424359185e-01 1.0465219567018194e-01 0.0000000000000000e+00  -2.5663999939252863e-01 3.2088514844103709e-02 0.0000000000000000e+00  -2.6290760315910494e-01 -4.5232929316633155e-02 0.0000000000000000e+00  -2.4707247893281703e-01 -1.2315946436263916e-01 0.0000000000000000e+00  -2.1936043798679314e-01 -2.0102717839416856e-01 0.0000000000000000e+00  -1.7444427157933051e-01 -2.7050008080502141e-01 0.0000000000000000e+00  -1.1297308567519411e-01 -3.2683178407936270e-01 0.0000000000000000e+00  -3.5432572933168628e-02 -3.6049435467827179e-01 0.0000000000000000e+00  4.7016009668068161e-02 -3.5659250409932103e-01 0.0000000000000000e+00  3.5091309659667219e-01 -3.0252028248758649e-02 -5.5129680925899482e-02  3.4617112603897487e-01 -1.8733463634705902e-01 -1.2699058358681462e-02  3.5016433631090960e-01 -1.3714266902084710e-01 -7.9762394718070714e-02  -3.9014671239614951e-01 7.1587867753794013e-02 1.4723369603445110e-02  -3.7774652792234964e-01 3.3287800937791219e-02 -2.6665435233840958e-02  -3.9317192458909822e-01 -5.7541723875508474e-02 1.8527613111294909e-02  -3.7304691345931684e-01 -9.4382651718450991e-02 -4.1534644405289881e-02  -1.2553706716203400e-01 4.5546891856964494e-01 -4.9210923656547889e-02  -1.2026777980279896e-02 4.9272503905047088e-01 -3.9545368811366569e-02  -5.4946353080397650e-03 4.9781751025638360e-01 -9.3379053159947878e-02  3.4693816213683104e-01 -1.9934637852409545e-01 -2.3084227822926515e-01  2.8716445981560940e-01 -2.4816694722760235e-01 -2.7475812765911034e-01  3.4002663375827663e-01 -1.5229548843423471e-01 -2.6553538786015596e-01  -3.5856729650312708e-01 1.6698966970387308e-01 -1.2356664317020590e-02  -3.5816031797006370e-01 1.0713670887717740e-01 -6.8607065572526535e-02  2.0530540481814419e-01 -3.9430128256853381e-01 -1.6880679930520734e-01  1.0390270227903887e-01 -4.3737072244555464e-01 -1.8602279576088787e-01  2.0871383388662257e-01 -3.7817216933046421e-01 -2.1141061995226113e-01  -3.0905588729229694e-01 1.3103399203378033e-01 -2.3430795929114176e-01  -2.8208907076807938e-01 2.3710609860172310e-01 -1.6788554971609962e-01  -2.5648136376791680e-01 2.4515465114057194e-01 -2.1788553769821187e-01  3.6851769538642165e-01 -1.3512783309144041e-01 -1.5168171944722422e-01  3.4656500900561615e-01 -2.3752616728685419e-01 -1.6414751742356862e-01  3.7908387065682247e-01 -1.4209142554042023e-01 -2.0238417193189276e-01  1.7680571613431700e-02 -5.1270799516737264e-01 -1.3440121512867881e-02  1.3059450181440707e-01 -4.7731452891907872e-01 -3.4722375603757086e-02  7.9872729473202675e-02 -5.1241396771488701e-01 3.5771822814390469e-03  3.2738484791093425e-01 -2.5272237469477921e-01 -1.0351877152751299e-01  2.7506391387741036e-01 -3.0097428656520009e-01 -2.3823057700739961e-01  -3.4862367397358157e-01 -2.5935477381310496e-01 -1.2271604335783255e-01  -3.7429934429471928e-01 -1.4873829223240845e-01 -1.0502794922978259e-01  -3.7606050746459568e-01 -2.3650963647948142e-01 -1.8490286821866639e-01  -3.5064302707135547e-01 -2.1160614679489356e-01 -5.7745970334802589e-02  3.1631100131571077e-01 1.9570229300103284e-01 -5.5108240489800064e-02  3.4721758988122664e-01 7.6310352040986032e-02 -2.7531574149076067e-02  3.3319842271943428e-01 1.1977400885939299e-01 -1.1219881059076468e-01  6.5958177874858123e-02 -4.8585361078094602e-01 -6.9422450691978208e-02  1.8364086090963411e-01 -4.2190177691859837e-01 -9.8785209845056662e-02  6.8181458449783567e-03 4.7501566494285985e-01 -2.0007660527183882e-01  5.4521421962001548e-02 4.6847000607073341e-01 -2.3754015573361104e-01  -4.9493627088339646e-02 4.3993169157544504e-01 -2.4035977343029830e-01  -3.3530999554322496e-02 4.2722489155081156e-01 -2.7964028602292845e-01  -2.4915700326915144e-01 -3.9000173602328531e-01 -4.0295162996533782e-02  -3.1434997054360353e-01 -2.9321494206005644e-01 -2.3346403823726814e-02  -3.0175848436816310e-01 -3.3084296812066810e-01 -8.5772462654598355e-02  -2.0044017552498614e-01 1.5712218287074656e-01 -4.3407641804742580e-01  -2.2446381746861130e-01 1.9554890855416607e-02 -4.5461922458185983e-01  -2.5828559206768120e-01 5.6143207265332014e-02 -4.1324718681755934e-01  -1.5848805726610959e-01 1.2431471793696527e-01 -4.5798434619345824e-01  -2.3231427094191462e-01 -4.1348905692174626e-01 -1.1057771519005262e-01  -1.5961358737964465e-01 -4.6079961335344138e-01 -4.5517104841307589e-02  -1.0298656282884208e-01 -4.9597979486941735e-01 -1.0694406678334826e-03  -2.2018673210612591e-01 -4.2599926659597803e-01 8.7089431505926601e-03  2.0087480674263977e-01 -4.4587070333875112e-01 -5.0356818948639297e-03  2.9143530645453175e-01 -3.4189929143711806e-01 -5.6205789224194492e-03  3.5649736615242372e-01 -1.0166767236874000e-02 -1.1949478653776845e-01  3.5434573629185073e-01 1.0129943855635788e-01 -1.7808100453034392e-01  1.1720532156964510e-01 -4.0906170376368695e-01 -2.3457805592600189e-01  2.9569347477393645e-02 -4.4303977407100764e-01 -2.1142383441043250e-01  1.1355043018287469e-02 -4.2524798149674076e-01 -2.5731301370313087e-01  -2.4293024676654501e-01 3.7092101527116922e-01 -1.7630861232468115e-02  -3.0055888655927882e-01 -3.5622446942390523e-01 -3.0118745103669048e-01  -3.1662501332286569e-01 -3.0781313163536533e-01 -3.5783659035807031e-01  -2.3454678406706075e-01 -3.7248438935690370e-01 -3.5389397754107366e-01  -3.6306604919068808e-01 -2.8184383108712818e-01 -3.0392871887163547e-01  1.9319827275843082e-01 3.3260021230044579e-01 -3.4198001719077797e-01  1.3867972428126521e-01 3.1865757360208341e-01 -3.9013809837842350e-01  1.1415527674530697e-01 3.6534012183740006e-01 -3.6040965186127000e-01  -3.9374070157783725e-01 -1.3829432076847487e-01 -2.2083049700931009e-01  -3.7358537147843512e-01 -1.5211427496776814e-02 -1.9263767806901788e-01  -3.7567744508769607e-01 -5.4483603050298202e-02 -2.6800596716417824e-01  -1.1074316225768793e-01 -4.7884931135052206e-01 -1.0227404688280493e-01  2.6514848001743196e-02 3.3496399909059171e-01 -4.1269565035989553e-01  8.1886947530437432e-02 4.0479342406062996e-01 -3.2693039967197979e-01  3.2572633303162402e-02 3.7442647106582011e-01 -3.6989209100915538e-01  -2.2135959501902659e-02 -4.7165307963076880e-01 -1.5730881231099242e-01  -6.9528200355778114e-02 -4.4704647147717186e-01 -2.1901599078255796e-01  -1.4524286750893983e-01 -4.5198140323242547e-01 -1.6765573976856485e-01  9.2143283195908407e-02 -4.5781155733469170e-01 -1.3394861581252510e-01  -1.1563934576474617e-03 -4.8547272215125475e-01 -1.0548580843431837e-01  1.5744466263889925e-01 4.5245714501085160e-01 -2.3213524330464166e-01  9.1547243666276854e-02 4.4126228041306159e-01 -2.7951545839862096e-01  1.1999481001499489e-01 4.7678534870311001e-01 -1.9800662692368304e-01  3.1708102521719367e-01 -1.2901086674467191e-01 -3.1000918694806812e-01  3.5145232355194378e-01 -4.4897885441050348e-02 -2.7660494919254608e-01  3.2314539498431999e-01 -7.3024961412791909e-03 -3.2508875426782158e-01  -9.2261422448103522e-02 -4.2530504117294116e-01 -2.8478799761689411e-01  -1.3201974492379212e-01 -4.0520340267046739e-01 -3.3255376862173164e-01  -1.5770888857043464e-03 -4.0500876134484448e-01 -3.1298135451249492e-01  -3.4724316394205967e-01 3.0927600422232832e-02 -2.3679857706175708e-01  -3.3755290958865120e-01 4.6229221945459982e-02 -2.8719327279513157e-01  -3.7345176551366177e-01 -1.3094860981306380e-02 -8.3244066140161263e-02  -3.8429372909149123e-01 -8.6326209690105613e-02 -1.4920818956308726e-01  2.6538243856766963e-01 -3.5651129517171137e-01 -8.8206230697327900e-02  2.2053637191054498e-01 -4.1040297989666158e-01 -5.2667344023941728e-02  -2.9732312697382673e-01 2.8609792146617741e-01 -3.8207470586817283e-02  -2.6145980164971061e-01 3.2139612269807294e-01 -8.8120028825803942e-02  -3.2549933045600754e-01 2.1657419686956811e-01 -5.8261223611632065e-02  -2.0820121718681006e-01 3.9455610382057010e-01 -6.2678782631866700e-02  -3.1833891104195056e-01 1.9800005933011577e-01 -1.1176079182574152e-01  2.7840643030895229e-01 -3.4769435714581798e-01 -4.5512292726030801e-02  3.2607955818265905e-01 -2.5104794069863956e-01 -4.3771773846828323e-02  3.6225163257473048e-01 -4.9904716956340266e-02 -8.5648318181188194e-03  3.5683564149655433e-01 3.5619409511179527e-02 -2.4998377940123354e-01  3.3584540542864799e-01 7.8954390045370373e-02 -2.8702261564100129e-01  2.8154032612183771e-01 -3.3810599964788618e-01 -1.4071935626697404e-01  3.1558087997471407e-01 -2.9052732745505172e-01 -1.9910200045355608e-01  -1.9930460111082876e-01 -4.0754230552541049e-01 -2.9669546203649827e-01  -1.4924040675878109e-01 4.1703866999244421e-01 -1.4970020090070307e-01  -2.1144878166802583e-01 3.3859840028241295e-01 -1.7724146872910879e-01  -2.3925690104133579e-01 3.3048611218765400e-01 -1.2978326368188350e-01  3.7330743139661610e-01 -5.7309828211070959e-02 -2.2711413541341333e-01  -1.6069437047403459e-01 4.3008448568709767e-01 -1.1191878576950802e-01  2.6689878673149203e-01 -1.9231214445568234e-01 -3.3713139525633284e-01  2.9591022716385545e-01 -1.1411673694296171e-01 -3.4436491097739169e-01  1.7778411480358217e-01 4.2845363845697149e-01 -1.0950692866225921e-01  7.7014594595400165e-02 4.9315930012565207e-01 -1.2871861250438307e-01  1.1380567663684410e-01 4.7337480980649099e-01 -5.7855730139008139e-02  2.7577866251181365e-01 -2.2254823804099597e-01 -3.0937076269444092e-01  -3.6586920996580191e-01 3.6664981303675508e-02 -1.3563496556849877e-01  2.0286889099644276e-01 -3.2577046954208383e-01 -2.8218043988343855e-01  1.0644768128379048e-01 -3.8564233518382329e-01 -2.7897064505348473e-01  1.0730660362450424e-01 -3.5295108217327603e-01 -3.3246076325777169e-01  2.6461326776697369e-01 2.8367564436362996e-01 -3.0042626095789082e-01  1.8190671385535759e-01 3.8502090370433761e-01 -2.9934203695030276e-01  2.6592118880103788e-01 3.2768739468866448e-01 -2.5667392383991128e-01  -1.6252702417744366e-01 -2.4962070797635717e-02 -4.7349024565175163e-01  -2.1165984788136200e-01 -8.7815214082618401e-02 -4.6400688683788549e-01  -2.5355714556367048e-01 -3.9604790690060360e-01 -2.4901520073936406e-01  -3.3774343351276043e-01 -3.3006220528238689e-01 -2.3869267392562263e-01  -3.6472572809219017e-01 -2.0713468839544544e-01 -3.4915732222189694e-01  -3.9004899662239961e-01 -1.6931006649176830e-01 -2.9215723825077722e-01  -3.6088789714893205e-01 -7.6705869376458805e-02 -3.3619014377787604e-01  -3.6374011087456792e-01 -1.7455727117894634e-01 3.2836196710511322e-04  -3.2385725836610041e-01 -2.3638731068236327e-01 -3.8963700632315629e-01  -2.5973932609928641e-01 -3.0546587152593691e-01 -4.0280103276286749e-01  -3.3643586491127564e-01 1.0319570793038349e-01 -1.7760317034207859e-01  -1.4333058431100817e-01 3.3020586837866978e-01 -3.2832585211059540e-01  -2.4127230517889783e-01 2.1220195044412060e-01 -3.2622235939314798e-01  -1.6119220935833908e-01 3.5289074722022257e-01 -2.6869005071538654e-01  -2.1838875705481650e-01 1.9765206764376919e-01 -3.7588948278116263e-01  -5.2391575142564609e-02 -4.9893406275198243e-01 -4.7954057410509635e-02  2.9825748838061245e-01 1.8292509594846962e-01 -3.1802536804443421e-01  2.2530488237569474e-01 2.5976928799015614e-01 -3.6573095678078932e-01  3.2933310667071930e-01 1.7782293911973776e-01 -2.5241720190131067e-01  -1.3740895315722838e-02 -2.9641862028939231e-01 -4.1940411205708256e-01  -6.1332363182054428e-02 -3.5787209744322379e-01 -3.9692725145355251e-01  -1.4568137869348813e-01 -3.2352413937636421e-01 -4.1719817271562087e-01  -1.5922744859832599e-01 -3.6979900623303724e-01 -3.8285753457936783e-01  -2.3876259252756261e-02 3.8836739628129879e-01 -3.3802158912546132e-01  -1.3327845235344074e-01 2.8443456858214444e-01 -3.9071809804200680e-01  -2.6143908886167688e-01 -7.8894381088781718e-02 -4.4304019371325370e-01  1.5541832024473584e-01 5.7479842256468100e-02 -4.2523181861367132e-01  1.4729253988608962e-01 -3.7294049843443103e-02 -4.3566136653693538e-01  6.9637501175141600e-02 3.9429840841411032e-02 -4.2997879134777145e-01  1.8995831131279001e-01 -3.6394188437918273e-01 -2.4832288841708436e-01  2.5662588161777689e-01 3.2803358918891579e-01 -8.2291211888675192e-02  2.9078779545070638e-01 2.5947649359473662e-01 -1.2556052737961862e-01  2.3518844329480007e-01 3.6576002852134032e-01 -1.3431680520046035e-01  2.6100878444615816e-01 3.3980695605050965e-01 -1.8113996006579844e-01  -3.2357149660686096e-01 2.6598496104793079e-01 -4.1747903351868019e-04  -3.4413041716676335e-01 -2.5494828480024995e-01 2.0487651261076857e-02  -4.4994440575292421e-02 -3.8862235417541124e-01 -3.5906230465986361e-01  6.0381736392252097e-02 -3.4111493773977120e-01 -3.7729774893915269e-01  2.1841656675632151e-01 -2.3162099514798435e-02 -4.0852777058491324e-01  2.2885442148739230e-01 3.8921226103577206e-01 -3.2211358919304052e-02  2.1262468649221550e-01 4.2168339308294628e-01 -2.0291574576301355e-01  2.5123600960152564e-01 3.7587107151652943e-01 -2.2793738310774325e-01  -1.4509589846006428e-02 1.2867886348855573e-01 -4.6460381152300739e-01  -1.6129345729105158e-02 1.1654369539448197e-02 -4.4752006722316112e-01  3.7812512644668106e-01 1.7193855195532761e-02 -2.0205067693589127e-01  -1.3554200763390686e-02 -7.0266610830727536e-02 -4.6171535424029281e-01  -8.5033658860584491e-02 5.7813876713670572e-03 -4.6551376754947749e-01  -2.7352917187799158e-01 1.9511411170348009e-01 -2.7632400246583289e-01  -1.2078047729584994e-01 4.1401871005445984e-01 -2.0121244874203353e-01  -2.0598911997658217e-01 3.1726867347823579e-01 -2.3000255819062462e-01  -3.6353461837381779e-02 4.9611892110110811e-01 -1.2954845730374931e-01  5.4419991212063971e-02 4.9534964467541126e-01 -1.6319309235261623e-01  3.5919517051103761e-01 8.3811701303943983e-02 -2.2201878992845567e-01  3.1441945341089600e-01 2.6017196976288803e-01 -2.2184130685775716e-01  -1.1290074090025541e-01 4.6914439631250437e-01 -9.7066405307919656e-02  -3.8382816842027417e-01 -2.4434067706995558e-01 -2.4297037509124045e-01  2.9918853954044622e-01 2.7698565627844957e-01 -1.9999413785040811e-02  1.3162128495754830e-01 -2.6562825403766988e-01 -3.9199451420700127e-01  7.0759665693573143e-02 -2.2085550873514889e-01 -4.3371364909333282e-01  3.1921475450200365e-01 2.0774029343966005e-01 -1.6370253169264157e-01  -2.9458926320959228e-01 -6.9900990585844994e-02 -4.1447157359093056e-01  -3.1207764545551347e-01 -4.8358559927303411e-04 -3.7271430413728834e-01  -3.3323712818433437e-01 -1.1776877168154097e-01 -3.8314853775307361e-01  3.7584867543256867e-01 -2.4582239544990527e-02 -1.8066689320132348e-01  1.9490515796194427e-01 4.1384410963098828e-01 -2.5538734847533245e-01  -2.8688838730806004e-01 -3.4565497892612962e-01 8.7385735312103651e-03  2.7781769308310883e-01 1.2917297524630000e-01 -3.6139811324480614e-01  2.8140695245914987e-01 -1.7789909563845262e-02 -3.6958959325333846e-01  -2.2264468607893664e-01 -1.8000615117551350e-01 -4.5249611736419254e-01  -1.3094248177528450e-01 -2.4663248380232494e-01 -4.4561115662199768e-01  -2.1570072722144557e-01 -2.6473033380904010e-01 -4.3275543625822060e-01  -3.1360025089253996e-01 -3.3944049742274329e-01 -1.5796630592722374e-01  -2.5016474742109374e-01 -4.0291644393266529e-01 -1.9177755221106682e-01  -1.4620802963241611e-01 -1.4480852581590006e-01 -4.6974088809407760e-01  -2.9116748863548031e-01 -1.8838601811220065e-01 -4.2370948871020897e-01  -1.6843505907562678e-01 -4.2970072168594919e-01 -2.3505693376026915e-01  -9.0867863845732352e-02 -9.1378447028541407e-02 -4.7398588523679708e-01  1.6475352498509033e-01 4.5036902888233921e-01 -1.6660720042329527e-01  3.1977452546499197e-01 2.4038325966836152e-01 -1.9822303791495141e-01  -6.2568601066012128e-02 4.7367896862708586e-01 -1.5397127898182422e-01  2.8063857382126578e-01 3.3023751392936179e-01 -2.0638723351582336e-01  2.0366265710363368e-01 -2.9701159439091734e-01 -3.1682998586047623e-01  1.9180876851550727e-01 -2.7645192317644918e-01 -3.5191340867979237e-01  -1.0735647810488130e-01 2.5948267713054729e-01 -4.3525724008760325e-01  -3.0943506785732311e-01 7.8224677744765742e-02 -3.2673667764174191e-01  1.7463822989003422e-01 2.0737347663027450e-01 -4.1254539042624122e-01  9.4647842735051696e-02 2.8538350912800658e-01 -4.2195106306590718e-01  2.3294534344498605e-01 -1.7591166795870414e-01 -3.7360705362425434e-01  3.5095604846262152e-01 1.5504494897432386e-01 -2.0722532555544493e-01  1.6674110059007768e-01 -1.6554544889007597e-01 -4.1876575275502859e-01  8.3275963469667175e-02 -1.1351017929190275e-01 -4.5280010851497260e-01  4.9556933226434605e-02 2.1622286878970653e-01 -4.5106221709454308e-01  1.0808939394996846e-01 1.4881101258998811e-01 -4.4166531961040750e-01  -4.7455084021681387e-02 3.3444858267675237e-01 -3.9698366234778459e-01  2.1924792873952448e-01 9.7992385647862307e-02 -4.0441214991660135e-01  -1.0369222179798776e-01 9.0684340208520703e-02 -4.6640944829981568e-01  2.3652245920313375e-01 -9.8421058003337586e-02 -3.9190207096016239e-01  -4.4024097212078069e-02 2.3495902950869446e-01 -4.5251001446773020e-01  -2.7307136045879860e-01 1.1826837307023702e-01 -3.6049960533784764e-01  -2.9458606127254459e-02 -1.8650667840922583e-01 -4.5780409040409098e-01  3.1129184218086176e-01 1.0418337644271362e-01 -3.2763344477009032e-01  -1.9391166197052487e-01 6.6287040661257512e-02 -1.1846786928239454e-01  -2.1184460203233821e-01 6.6377510259155698e-02 -7.7603648883626281e-02  -1.8679917750701228e-01 9.3755927374164993e-02 -1.1184951771220131e-01  -2.0796233398343550e-01 3.4744490712485789e-02 -1.0769331041823209e-01  -1.5539992576265280e-01 1.8448726959525732e-01 -1.0861640685983324e-01  -1.7568547947567018e-01 1.3471503657802586e-01 -1.0906046752131146e-01  -1.7945812448840878e-01 1.8001164852458426e-01 -6.6687319442078119e-02  1.7910623337263365e-01 9.4225336493250600e-