<?xml version="1.0"?>
<VTKFile type="UnstructuredGrid"  version="0.1"  >
<UnstructuredGrid>
<Piece  NumberOfPoints="670" NumberOfCells="2005">
<Points>
<DataArray  type="Float64"  NumberOfComponents="3"  format="ascii">0.03713886802078672 2.512894580909404 -1.335693946247543e-15  0.2374112909598728 3.054914729887387 -1.325147370302216e-15  -0.6853897749063622 2.569098856357745 -1.332429660193802e-15  -1.346832512921658 2.321549684887205 -1.324794422372978e-15  -1.856223166697127 1.829592250036537 -8.876379203651884e-16  -2.171244489723059 1.189547222480874 -8.783205296809261e-16  -2.251965240761711 0.4849057475194484 -4.37988871240974e-16  -2.133723404071476 -0.2114786638170538 -4.310844601544142e-16  -1.778718259721544 -0.8153253248655913 4.889842810198329e-18  -1.254951185251003 -1.283608039801742 7.072630789992366e-18  -0.6012554168835372 -1.54972566676634 2.965952520906358e-19  0.1073688955526496 -1.595939364416551 -7.771025960797927e-19  0.804144012621465 -1.443318168434152 -4.435222174050965e-18  1.409696254078793 -1.071843386748187 3.169731183672884e-18  1.879244376551998 -0.545346576397348 -2.157404430678049e-18  2.120977534021272 0.1119852158780683 -4.404741395282841e-16  2.127242776477368 0.8020119538526412 -4.406731901777955e-16  1.847465624981056 1.430874434672786 -8.901216827111799e-16  1.361322719870105 1.936580011132037 -8.781011813468845e-16  0.7356392855515651 2.301829971405076 -1.3460002042852e-15  -0.5030818538378086 3.10182718667585 -1.316883909882418e-15  -1.241698405309843 2.975372382800017 -1.332064866682715e-15  -1.910886436769525 2.631549311094131 -1.323016417333966e-15  -2.455590078343863 2.108069960144676 -8.400744053444304e-16  -2.834245700133359 1.459060279096453 -8.756621971146065e-16  -3.036842819161179 0.7318470583548328 -4.436554243566585e-16  -3.050980293270575 -0.01755132626377463 -4.181224988285929e-16  -2.863090720696923 -0.7450601119259059 3.059069422945907e-17  -2.501186022447257 -1.402385012374881 -1.717499110970692e-18  -1.98931234655279 -1.948487120554202 1.993563270727866e-17  -1.357148872149445 -2.353217761683951 -1.043876203701978e-17  -0.6341956358765367 -2.56988333324522 1.688375420652588e-18  0.1130592419101344 -2.600355890889549 6.911222219189257e-18  0.8485454716021388 -2.463088081228777 1.716761107504954e-17  1.533104698991441 -2.16211775865523 1.237515616795123e-17  2.131846079406055 -1.716238901151304 1.189942152359444e-17  2.617056715505823 -1.148596997478431 2.560199241963524e-17  2.968284168670031 -0.4855431284028175 -4.394423377599874e-16  3.165236449155111 0.2468093693263954 -4.434888213716063e-16  3.15076978550234 1.010590247606753 -8.677779256487743e-16  2.858357842388404 1.721720152839871 -8.805069340326794e-16  2.344528841613941 2.292750338367313 -1.309833608083141e-15  1.690755107848099 2.687442655781807 -1.321759299570543e-15  0.9748768351535415 2.922483722200728 -1.279600138593845e-15  -0.1045477433646166 -2.139788234785868 -1.194031245677891  0.4518210629809326 -1.843816902979626 -0.6690404398056449  -0.2570295025215314 -1.8525653237743 -0.5421773398047092  0.4981951436641811 -2.121394222595237 -1.30129269557538  -1.428988283200976 1.973566359315807 -1.732642733003513  -1.71421676777775 1.738349391264083 -2.633531148942663  -2.063576423357883 1.472627229360203 -1.782400370060607  -2.222654088855119 1.316430642361718 -2.526568416494099  2.58340974210948 -0.6107914092886492 -1.973151425006975  2.72434244280102 -0.07011330524522508 -2.345233895414572  2.680245709454063 0.07125265419995525 -1.816840068022793  2.120730997448464 1.460110189899325 -0.8195500869299428  2.233623997777638 1.081956516116406 -0.5064470183579204  0.2940957336531118 2.498695363393951 -0.5695107984039913  0.8167381172540468 2.344800528756419 -0.7424394975046626  -2.223114581017034 -0.6246937337884635 -0.5376938167761844  -2.500193380968839 -0.2237508286413487 -0.8692273162543445  -2.407647977120662 -0.8501451646934757 -1.231166675232212  -0.779389900297477 -2.275626290461391 -2.087307664508407  -0.112993027504851 -2.412708953497091 -2.245988111082734  -0.4004483146616556 -2.292585684467019 -1.678654905322656  2.520866221826533 -0.3658061781339021 -1.350581856418436  1.709823912578628 1.816901198151568 -0.5138998230110403  2.228560071167244 -1.122357725075276 -1.577652635457902  -1.126939374542058 2.4576183709497 -0.5807052376808256  -1.8109524013824 1.977151057158438 -0.4967274321086124  0.9109169700020932 -2.231880714206106 -1.877372360024864  1.011809920523696 -1.895940767399173 -1.164757510274653  -0.5965471719306384 -2.357143926379587 -2.83426496347091  1.787329785648804 1.837397035096368 -1.249913825092991  1.321383005652969 2.124560812777712 -0.974646340338668  2.689021179053747 0.3979961199155655 -2.268444016069475  -0.5818237436236284 2.26761167592306 -1.673677960225481  -1.090632036378623 2.006925318628583 -2.261540756746815  -2.189637758729106 1.433299437254576 -0.6594096334351062  2.556572757822524 0.8210169713445407 -2.473777132910933  2.738813419349136 0.2146484675906434 -2.935343681167301  2.449969326148068 0.8914833236235453 -3.31741642453565  2.086604058968557 -1.5829663359136 -2.252374755599947  1.84299516964099 -1.658796260058495 -1.738578404326914  1.539471882918215 -2.051583646974755 -2.296228307403131  1.412530063559537 -1.922680545493578 -1.630709353686915  1.560439061069819 -2.136112995633498 -3.156021117180512  1.089937977299175 -2.307988469283225 -2.60098876750556  0.7128631243018545 -2.438130349728174 -3.147869253458492  0.1616509755748695 2.40713019465137 -1.26129209314104  0.7591934653689613 2.269631742597662 -1.45808931262531  0.499209417537673 -2.420965800872666 -2.385648895325653  2.563786134868327 -1.030438363358996 -3.35065127485132  2.285341068809213 -1.474758915696029 -2.842625129216303  2.120818843795306 -1.68846562925181 -3.346609340370284  2.479006050090532 -1.065947113017236 -2.441569484331862  2.59533317345353 -0.4641138576881838 -5.029186892620355  2.716762845643679 -0.3841709375552186 -4.103882280374447  2.531539510776365 -0.9675982690251501 -4.300404349958671  -0.08119631518150167 1.910159476872022 -5.524589831413071  -0.3465353898333822 1.963525694032623 -5.017572779052693  0.2543386192254928 1.98895673144345 -4.966884052438901  -1.986046703981122 -1.435746730056772 -1.190095209597026  -1.695437789641575 -1.816317123833521 -1.836049678044603  -1.373461977882898 -1.840239506802712 -1.127087651172708  -1.117241807698558 -2.109551425969002 -1.691527836688089  -1.613492602031131 -1.390902803617776 -0.5709120640454316  -2.036582943794274 -1.054573425831403 -0.6923024643708088  1.603616379031613 -1.502337971473157 -1.061202763045936  1.621163300431485 -1.151577195661698 -0.490918347456547  1.078978362113181 -1.572119697047328 -0.5761243904010289  2.067214689465866 -0.8876346721810947 -0.8744971171089388  1.389228866768257 2.013569595914678 -1.829478435341068  0.6861903154257645 2.129357301017103 -2.249043024431932  2.387602758705019 0.5685916812723738 -0.5925999749032852  -0.5116427281102982 2.110280588111229 -2.522859111087357  2.599086534836204 0.3429901505895033 -1.203308170861096  -1.021294300540487 2.332742953197846 -1.215846085193497  -1.451443489721277 2.18313194867058 -1.032035409628014  -1.921291433076 1.773107016085601 -1.146963299783528  -0.1873129049094773 2.051637778422458 -4.213983562308493  1.097460899981594 -2.257763919799349 -4.334940423875913  0.5387523244441668 -2.214895211562125 -4.776923306944266  1.193942726646918 -2.027249835658475 -4.944199557044864  2.602797002281448 0.7113002972396577 -1.681424304818056  2.38044761011456 -0.08894566333722685 -0.7051030966902675  -1.342537474490098 -2.054816246382698 -2.477439726284258  2.447147621014037 0.9834329999232764 -1.073621953775573  -2.523681487293399 0.8977583521307532 -2.991816734790971  -2.542593333413413 0.7682357723453642 -2.109212688268293  -1.466852220416105 1.771293507632104 -4.38851877824104  -0.8773843465188522 1.908014112753457 -4.755266695092841  -1.382707835562674 1.561966013977211 -5.229991622844326  -1.980028412558566 -1.581459546917652 -2.495602117090046  -2.475310450468459 0.3329600938979663 -0.6613070903958506  -2.378796443089393 0.8605552208501072 -0.5471812742633695  -2.391236522591185 1.021692378011158 -1.136771649390645  -0.3497594244943553 2.104244050787875 -3.414529854585459  -1.134255008711873 2.006999904426379 -3.102236548684425  0.1150933388939183 2.241896142662002 -1.910915978659609  -2.631615971548476 0.235821699293652 -1.40451039810559  -0.4002786707766754 2.548668599625968 -0.8069243621805395  2.284456271878024 1.363656907601893 -1.505171446316937  2.365600543665204 1.211453594087605 -2.04276527705319  1.98011316875665 1.628893412760549 -2.046250857366822  2.21278920083643 1.290690214916041 -2.641183943536055  1.668044226416973 1.688656837286812 -2.778751290550932  -2.656761134587804 0.4011765512915005 -2.771357523466708  -2.689267507650875 -0.0770770316979266 -2.256197946571264  -2.635711564540943 -0.3093998819411977 -1.535929225717394  2.7130691985298 -0.4812210325026991 -2.740814423423903  0.06807021302347289 2.121349424929287 -2.649545643148804  1.373788923381422 1.748877705691441 -4.339770553752785  1.146703500254099 1.834218195441771 -3.490636678937988  1.742216172895983 1.545794086295096 -3.730845854171997  -2.605673518206838 0.3610225172657521 -3.554617850636439  -2.601354285597475 -0.155681066061083 -3.157700480620142  0.6081665821742541 -2.417945390560629 -3.927424681111196  -0.9702356149896918 -1.750427445554442 -0.5604754223873224  2.708951778986891 0.2264001636732411 -3.854449727609416  2.47540514520646 0.8350027969795933 -4.224850782624992  2.080059293976567 1.336794675642125 -3.169977011464687  0.08774632660263022 -2.470426641894122 -2.757805974269431  1.095881856291802 1.95483882433887 -2.702059423828238  -1.947109927171199 1.008794688332989 -5.188880787498899  -1.576363840489622 1.098929914738651 -5.720233835754128  -1.783751245579186 0.549738790478289 -5.805966327515003  0.4749515417743342 2.032877375122752 -3.094414464539
[...]
<PointData  Vectors="f_732880-0"> 
<DataArray  type="Float64"  Name="f_732880-0"  NumberOfComponents="3" format="ascii">4.3920864999256376e-02 4.3402538278979463e-01 0.0000000000000000e+00  1.9155825706693028e-02 3.6247164510481267e-01 0.0000000000000000e+00  -3.9964590161259382e-02 3.9572984833254049e-01 0.0000000000000000e+00  -1.2190013597570971e-01 3.2461013633376362e-01 0.0000000000000000e+00  -1.8794844375317957e-01 2.4248595091375796e-01 0.0000000000000000e+00  -2.3592934770763863e-01 1.5153969441489218e-01 0.0000000000000000e+00  -2.6518680037974113e-01 4.2238009565707134e-02 0.0000000000000000e+00  -2.7067004844885939e-01 -7.4942051596874684e-02 0.0000000000000000e+00  -2.4924864711515402e-01 -1.9968928020394683e-01 0.0000000000000000e+00  -2.0075964202566046e-01 -3.1305984964273226e-01 0.0000000000000000e+00  -1.1948614201025926e-01 -3.9501510491040076e-01 0.0000000000000000e+00  -2.5662659807092560e-02 -4.2733286219747252e-01 0.0000000000000000e+00  6.7176725864074083e-02 -4.0384826150868525e-01 0.0000000000000000e+00  1.4172488771106936e-01 -3.3501009669835030e-01 0.0000000000000000e+00  1.8673271921238146e-01 -2.2795885555201989e-01 0.0000000000000000e+00  2.0084539097170892e-01 -1.0315690083982892e-01 0.0000000000000000e+00  1.9777178910232673e-01 3.2449800930576693e-02 0.0000000000000000e+00  1.8728138979294631e-01 1.7362796733880742e-01 0.0000000000000000e+00  1.5843674102915631e-01 3.0752760182044420e-01 0.0000000000000000e+00  1.1418714974201881e-01 4.0104869808734478e-01 0.0000000000000000e+00  -6.0068259750853462e-02 3.3546045095786697e-01 0.0000000000000000e+00  -1.0964247665251040e-01 2.6895860982948411e-01 0.0000000000000000e+00  -1.3733413237192510e-01 2.0206325917209200e-01 0.0000000000000000e+00  -1.5471347901378826e-01 1.4337421473450004e-01 0.0000000000000000e+00  -1.6872264758648231e-01 8.1641370393905288e-02 0.0000000000000000e+00  -1.7446039884419864e-01 2.5745481270448525e-02 0.0000000000000000e+00  -1.8058078540576003e-01 -3.2649783639903042e-02 0.0000000000000000e+00  -1.8205971746249289e-01 -9.1434696149117936e-02 0.0000000000000000e+00  -1.7774954870190149e-01 -1.5436379340024844e-01 0.0000000000000000e+00  -1.5771566818743929e-01 -2.2195618045530183e-01 0.0000000000000000e+00  -1.1947705041719754e-01 -2.7869041289671920e-01 0.0000000000000000e+00  -7.1630476785023392e-02 -3.2153905455157211e-01 0.0000000000000000e+00  -4.1834005909837588e-03 -3.3723756029713559e-01 0.0000000000000000e+00  5.9450624654164202e-02 -3.2162857461057831e-01 0.0000000000000000e+00  1.1070304998259252e-01 -2.7704747391392687e-01 0.0000000000000000e+00  1.4178485824916823e-01 -2.0954694536436352e-01 0.0000000000000000e+00  1.4943136729299963e-01 -1.3136002225787832e-01 0.0000000000000000e+00  1.3235878819225622e-01 -5.6234305084019026e-02 0.0000000000000000e+00  1.0485401937846715e-01 -1.1541721820106350e-04 0.0000000000000000e+00  9.0842845310651996e-02 3.9964663202142550e-02 0.0000000000000000e+00  9.9170266063764473e-02 7.8413550099841370e-02 0.0000000000000000e+00  1.1844599643240027e-01 1.4425057082747908e-01 0.0000000000000000e+00  1.2006586341855513e-01 2.3438218141977060e-01 0.0000000000000000e+00  8.4108614205317664e-02 3.2326094030074065e-01 0.0000000000000000e+00  -3.5086189682519170e-02 -3.9708336209375894e-01 -7.0589897018368004e-03  3.3567050536699186e-02 -4.1273759602708776e-01 1.5154428546467527e-02  -5.5171060625982905e-02 -4.1815550466910817e-01 1.5199754403130091e-02  2.9285352384149383e-02 -3.8584485460850965e-01 -9.7504290984769225e-03  -1.1852497218637635e-01 3.0530164023938122e-01 -8.4859897362447437e-02  -1.2424740567860534e-01 2.6385263131677722e-01 -1.0222666234460671e-01  -1.6544483558380066e-01 1.9989810125462346e-01 -7.0257489559487116e-02  -1.5840920998236452e-01 1.6929253034154787e-01 -9.4241911808358461e-02  2.0236090067606036e-01 -1.0609101908956672e-01 -4.6517743655670601e-02  2.0269753226601062e-01 -1.7081093573763650e-02 -6.9226695192955046e-02  1.9727943545674323e-01 -2.0243188580124416e-02 -4.5209870409430329e-02  1.6879783960583772e-01 1.7465632078540835e-01 -1.5805629322301486e-02  1.8669319655862993e-01 1.0120409985031638e-01 4.7313660538050350e-03  5.2344560986315652e-02 4.2402264080972274e-01 -2.8469023398419464e-02  9.6014596233964092e-02 3.9191382173822126e-01 -3.2312153858343622e-02  -2.5056582006738304e-01 -1.3868461856900194e-01 1.1528124883395087e-02  -2.3973281292774640e-01 -5.8894320772203093e-02 -1.0191890372343452e-02  -2.2468823381672914e-01 -1.3922406347294894e-01 -2.9806685367809845e-02  -1.0981869637793841e-01 -3.5360011122089857e-01 -8.0111124119816385e-02  -4.8247625024396439e-02 -3.6828549638556457e-01 -8.2805620860645912e-02  -6.9882533209599459e-02 -3.7347915823015071e-01 -4.5770779035747056e-02  1.9993016323806687e-01 -1.0256634130630879e-01 -1.6339450052857273e-02  1.5940478887860676e-01 2.5890051232067773e-01 -7.4542873906209188e-03  1.8849360040130594e-01 -2.0015467675134185e-01 -2.1999403048501436e-02  -9.9187948203587950e-02 3.3801654741699461e-01 -3.0422331792558786e-02  -1.7290095822482127e-01 2.4492412569549005e-01 -1.9901911713403879e-02  5.9823213831300882e-02 -3.4895775748403557e-01 -4.7086780273738013e-02  8.8346061473660448e-02 -3.6488155110282472e-01 1.6534927324186250e-03  -1.0334396770719342e-01 -3.5610573031901421e-01 -1.2844559883710654e-01  1.4713548078897490e-01 2.6613397109100040e-01 -4.7043815097012991e-02  1.2615429180726101e-01 3.3616735894520910e-01 -3.8473426279189989e-02  1.9308906629960579e-01 4.6467283340714496e-02 -7.1994906933249586e-02  -4.3437089040117866e-02 3.9788352470322846e-01 -9.3951544576078655e-02  -8.2587603416212546e-02 3.5457326962618541e-01 -1.0392971206716146e-01  -2.0874528494215691e-01 1.6655061594763418e-01 -1.9694689150942246e-02  1.8708149816792768e-01 1.1963687969432696e-01 -8.9335194118152786e-02  2.0359596682857012e-01 4.3807832984185280e-02 -9.8214173676495112e-02  1.9385619164334267e-01 1.6187128219587504e-01 -1.2074943960093344e-01  1.6910718104605726e-01 -2.2749074948555498e-01 -6.2339702355568807e-02  1.5378858540153012e-01 -2.6641544167092129e-01 -3.2729373564169884e-02  1.1638296529088878e-01 -2.9367046956347770e-01 -7.0675255560124592e-02  1.1504487021245305e-01 -3.1814932963225551e-01 -2.7640013965434952e-02  1.1376746088136858e-01 -2.7780173563150357e-01 -1.2028446559025582e-01  6.9569896809494186e-02 -3.2365811737353944e-01 -9.3769505765421424e-02  2.8555557719723484e-02 -3.3484637255142558e-01 -1.3004793181268845e-01  2.9259560312539359e-02 4.2278447912647088e-01 -7.1802746946551546e-02  7.7263797938909140e-02 4.0263255412555182e-01 -7.7344074466463061e-02  1.1971447123573863e-02 -3.5623414249807234e-01 -8.5556783274642917e-02  2.0629238188266927e-01 -1.1818043967810384e-01 -1.1537626775037016e-01  1.8357532516827740e-01 -1.8930372166730774e-01 -9.4084190515030447e-02  1.6983385065704543e-01 -2.0759833735400637e-01 -1.2259674984299038e-01  1.9866371417432593e-01 -1.4844310190427312e-01 -7.0130274761116551e-02  2.1262230585985178e-01 -4.1647520672161806e-02 -1.7334554711484851e-01  2.1780088692302435e-01 -2.4118889873142871e-02 -1.4081378775533054e-01  2.0756163236036920e-01 -1.0198223028628600e-01 -1.5609247817967248e-01  -8.6608400081176311e-03 3.0614661583649599e-01 -2.3089590873311072e-01  -2.0518443130298967e-02 3.3035050001874089e-01 -2.0717850127314677e-01  3.0878397891574573e-02 3.6352242666226126e-01 -2.0316217831698596e-01  -2.0620416215099951e-01 -2.3258759362194997e-01 -2.5535911575873121e-02  -1.8178471252555467e-01 -2.7938504033649053e-01 -7.0491947104666511e-02  -1.6326754684486974e-01 -3.1968623808842012e-01 -1.6859599720953158e-02  -1.3687942194610370e-01 -3.3649242980894351e-01 -5.4678573889493903e-02  -2.0542492203129881e-01 -2.8472116497006700e-01 1.3747586927603835e-02  -2.3139384069185714e-01 -2.0529769027595088e-01 5.4651161063748975e-03  1.4982142436099158e-01 -3.0464066388097871e-01 4.3554745449709423e-03  1.6707476291166609e-01 -3.0100891135915619e-01 1.5798067066095597e-02  1.0951431261176306e-01 -3.7392404543863750e-01 1.7030878438985705e-02  1.9300732052813105e-01 -2.1566505236350941e-01 8.8881079759109537e-03  1.1909420512314496e-01 3.4338052107096073e-01 -8.8674616129670841e-02  6.8373261542899536e-02 4.1602055336197696e-01 -1.1505661981202385e-01  1.9480720032331930e-01 1.0543844002828161e-02 4.4478272619260352e-03  -3.1080416542812215e-02 4.0708513816366487e-01 -1.1740000265900025e-01  1.9039983578739450e-01 -4.2648717512565075e-03 -1.8939595630752384e-02  -8.7272379453173649e-02 3.5200956559185720e-01 -6.9707038325922149e-02  -1.3006559385940331e-01 2.9852884089856346e-01 -5.4479656781992042e-02  -1.6780645161949900e-01 2.2574920204180698e-01 -5.1236791007802644e-02  5.4410113284435353e-03 3.8905708166344605e-01 -1.7456800814676446e-01  6.3949945577260081e-02 -2.8598829816336896e-01 -1.9126562452310689e-01  3.6211934422436167e-03 -3.1023665632199682e-01 -2.2728886229618073e-01  7.6706943529188831e-02 -2.6779338281571369e-01 -2.2052332581274356e-01  1.8198950197482050e-01 6.7911943927125684e-02 -4.8127536085892174e-02  2.0149748143892199e-01 -9.1981731824568078e-02 6.7799137509854833e-03  -1.6350870721543426e-01 -3.1779910604318151e-01 -1.1422849883207217e-01  1.7737361084394215e-01 8.9971961136862830e-02 -2.0896438482284070e-02  -1.7142778006435533e-01 8.3214672129377332e-02 -1.1578486783035410e-01  -1.8708885877491127e-01 8.5407505574929071e-02 -7.8393426905990729e-02  -9.5558280029375192e-02 2.3874664396723541e-01 -1.7757924260258801e-01  -5.7286752014664787e-02 2.9771960375968753e-01 -1.9571425030305190e-01  -9.7991063232892792e-02 1.8569846004422316e-01 -2.1260863572561289e-01  -2.0720590317831722e-01 -2.4533469807199756e-01 -1.2019591870638503e-01  -2.4506839777606773e-01 1.6024742437995912e-02 -3.8188155949376618e-03  -2.3903537993233728e-01 8.6501747556211456e-02 -5.3588630429578120e-03  -2.0854241281078434e-01 1.1579581778657291e-01 -3.6001012341235192e-02  -7.0827396677300399e-03 4.0633649577770387e-01 -1.4533354777168939e-01  -7.4221363894841366e-02 3.4033366256598663e-01 -1.2551149758181179e-01  2.0339962969426039e-02 4.2908363071206285e-01 -1.0371298060884873e-01  -2.1654858773940602e-01 1.3518265467547664e-02 -4.3434195160768199e-02  -2.0996161933312208e-02 4.0478437556829988e-01 -4.5366344205634804e-02  1.6514206809421969e-01 1.6903179811054972e-01 -5.0457343947248594e-02  1.7002780636442369e-01 1.6574910704322532e-01 -7.6560238091300095e-02  1.5298077514452202e-01 2.5308304206453114e-01 -8.8191068713339885e-02  1.7210699768993523e-01 2.1550927182929935e-01 -1.0687488596341409e-01  1.4389228701529322e-01 3.1934563500297353e-01 -1.2509041210682162e-01  -1.9293500950273956e-01 1.6959922410573511e-02 -1.1255490897365795e-01  -2.0937712537301303e-01 -3.5073139555701432e-02 -9.4418478616595483e-02  -2.1914719196099150e-01 -5.8123656075922452e-02 -5.1983774710551010e-02  2.0885202260854591e-01 -6.0377082372839973e-02 -8.4606068530712605e-02  2.0766743514493063e-02 4.3102518055020617e-01 -1.2707784734692334e-01  1.3016044305861543e-01 3.4688201478955494e-01 -1.6750659475147262e-01  1.1353168492991282e-01 3.8485647350668767e-01 -1.4930085289451189e-01  1.5733556512035005e-01 3.0983993886263056e-01 -1.4641712058201875e-01  -1.8971034412291413e-01 -1.0369012463761167e-02 -1.5136483017910785e-01  -2.1541907688755013e-01 -7.2771657694820177e-02 -1.4428818730954865e-01  1.2622935008446683e-02 -3.2315264753591055e-01 -1.7684631140560789e-01  -1.4049588960480436e-01 -3.6868756325877977e-01 1.1698577180497606e-02  2.1218465627077115e-01 6.1066237768813508e-02 -1.3035953969792699e-01  2.0020214524338223e-01 1.5295295323587041e-01 -1.4558127132565241e-01  1.7263135011122613e-01 2.4999217679146599e-01 -1.2604382240467807e-01  -3.3521458959110621e-02 -3.5942794368470515e-01 -1.1426830224351577e-01  1.0386767447070132e-01 3.8907561558636350e-01 -1.2909085547256488e-01  -1.3177995887663166e-01 6.7288492509458578e-02 -2.1070109783423116e-01  -1.1622135806021974e-01 8.6989644983993850e-02 -2.3196883789936709e-01  -1.3701631185374857e-01 -2.2620567864583730e-03 -2.4300738599362509e-01  5.9790350586101063e-02 4.2736541112446191e-01 -1.4113320898588591e-01  -1.0798132263611737e-01 4.9645328392676290e-02 -2.5837037614710123e-01  -2.2583125884122229e-01 -1.5155652646761861e-01 -1.2944986044973503e-01  -1.9780505419266720e-01 -2.9727417557100594e-01 -1.6243492444409335e-01  -1.5978500262192979e-01 -3.3352541581847989e-01 -1.6750854967635259e-01  -1.0539662338394626e-01 -3.7429097692772434e-01 -6.0329148337285483e-03  -5.6974048558364404e-03 -3.7415987397535844e-01 -4.6880102074450869e-02  -1.4073034936693027e-01 1.6157531297424957e-01 -1.2812344624815680e-01  -2.1833219471046617e-01 -1.1070792784873613e-01 -7.8029487122581537e-02  1.8318326073806659e-01 2.3000445993653668e-01 -1.3996349899592347e-01  -4.4972294612154524e-02 -3.5248774944236000e-01 -1.5593440704235395e-01  2.1459917121036207e-01 -2.0286006359787466e-02 -1.1376379461649273e-01  -3.8674648013089306e-02 -2.7597262976988673e-01 -2.8317659308181942e-01  -3.7838058391799927e-02 -3.0807813931967543e-01 -2.6679731796140665e-01  -1.1656147572570623e-01 -2.9893675709039741e-01 -2.8128181360379823e-01  -6.0185099125562525e-02 3.2702070607426847e-01 -1.6222004501361942e-01  -2.3290773172625912e-01 -1.5738953425004079e-01 -1.8061878999367029e-01  -2.2964028940420142e-01 -2.3729904493993681e-01 -1.7649721786416375e-01  1.7496807456318883e-01 2.4526626754810962e-01 -1.6288071616110142e-01  -2.1302005580089284e-01 -1.8995042337727297e-01 -7.5394254922345583e-02  -2.2814763911821742e-01 -2.1591520824910321e-01 -2.2155387271000784e-01  -2.0364699632055497e-01 -2.9453828812798916e-01 -2.0691953055035023e-01  1.7953457811072249e-01 -1.7450128389951941e-01 -1.5487007914469925e-01  1.7851189643374635e-01 -1.5489687831837487e-01 -1.8816979854437205e-01  1.2814122626155522e-01 -2.3235368282745553e-01 -1.8657506166527538e-01  7.5327169790635445e-02 3.9733789131675495e-01 -1.7297001953838320e-01  1.1524041621326453e-02 -7.0204354214472353e-02 -2.8133480293930385e-01  -3.7112619173518990e-02 -6.2073475803636459e-02 -2.9179310153846416e-01  -1.1231407955433700e-02 -5.8004320094480191e-03 -2.7799005575140284e-01  1.1088364044612559e-01 2.7556752148750840e-01 -2.2307884277569001e-01  8.8149447324795197e-02 3.5081321092031370e-01 -1.9869529399917898e-01  1.4376898348522391e-01 2.8143487504324249e-01 -1.9171826467794265e-01  8.5383101826318947e-02 -2.8457531950585124e-01 -1.6030553005294618e-01  1.3890755858097611e-01 -2.3840952958852085e-01 -1.4779926291647963e-01  -1.5320525443817562e-01 -3.1756914222997240e-01 -2.4487845517306475e-01  -2.0178703206725879e-01 -2.7322564616279699e-01 -2.4262508639847752e-01  -1.7147187746767142e-01 -2.7553755754441317e-01 -2.7205949048347544e-01  -7.1633930939757826e-02 -3.3839052451580620e-01 -2.1439131776963002e-01  -1.0946949253607598e-01 -3.4998218648779578e-01 -1.7521966150413237e-01  -2.1472695428684482e-01 -1.2071807331183382e-01 -2.1307730256205321e-01  -2.1198913599745359e-01 -8.0334651052373654e-02 -1.7967883839394216e-01  -1.1024415244833384e-01 2.4265877215940343e-01 -1.4279629528862114e-01  -1.3362885344425560e-01 1.1075008347688015e-01 -1.7362586262826091e-01  -3.7152503826343740e-02 1.7290442091535604e-01 -2.7474495501217705e-01  1.4003129233624062e-02 2.4521432739773288e-01 -2.6469936456943199e-01  2.9208001112503881e-03 1.8392431250626051e-01 -2.7638507324340744e-01  1.9550609153663281e-01 1.5057948544414038e-01 -1.7122334315166915e-01  1.5427513486733066e-01 -2.3979819602422828e-01 -9.5683159323707384e-02  2.0335673245946659e-01 6.0736420745149788e-02 -1.8009990135231280e-01  2.1387381939793862e-01 5.7607684261143155e-02 -1.5448959896456047e-01  -2.9883403684638418e-02 -1.3198729996933584e-01 -2.9586125022952620e-01  5.3031056323238603e-02 4.2049163195060768e-01 -1.5715509940393013e-01  -1.4907644186311075e-01 -3.3374176821813917e-01 -2.0743311566479852e-01  3.9324204376040936e-02 3.0685383520752302e-01 -2.3817582317825592e-01  -2.0004919010657576e-01 -2.2587875037003974e-01 -2.6449950558444896e-01  -1.7696962629927698e-01 -1.0755261146598187e-02 -1.8635740420190069e-01  -1.5719390229377400e-01 6.3356724367412326e-02 -1.5109981575455941e-01  3.8258093481859268e-02 -2.7741013561324951e-01 -2.5370988249454640e-01  -1.7124384571475953e-01 -4.6109096952711474e-02 -2.2600069695040889e-01  1.4512866751430067e-01 1.5300349797987792e-01 -2.2477235218420386e-01  9.8718943709985324e-02 1.6616717578789320e-01 -2.5257567470403214e-01  1.1227847999878585e-01 2.1846407169140541e-01 -2.3847947584593829e-01  1.2150402845797659e-01 -2.2005206425596777e-01 -2.2237918320959629e-01  -5.8737207521492585e-02 2.4082468189752906e-01 -2.3392431163084249e-01  -7.2033884238965173e-02 1.5961225150099828e-01 -2.6072155424772414e-01  -9.3228960871672775e-02 1.4533453301537991e-01 -2.4035367006332314e-01  1.6013121486475146e-01 -1.6177668221825206e-01 -2.1192092142248253e-01  1.4109473912124687e-01 -1.5788577435029291e-01 -2.2716445665425875e-01  -2.2292189242867959e-02 2.4909014037497940e-01 -2.5718542885603812e-01  -1.5252425688265181e-01 2.9705948427342040e-02 -1.9789443440828938e-01  1.6653209873749081e-01 1.7981811338418000e-01 -2.0205152377039357e-01  -1.2819631126428044e-01 -1.2633486747507336e-01 -2.9729892419692738e-01  -1.0218873245257656e-01 -3.0746579020367072e-02 -2.8599544089147078e-01  -8.2535300237940673e-02 -8.9976960205857895e-02 -2.9863969590866463e-01  -1.3713499855155234e-01 -6.4746640841650702e-02 -2.7449584056686283e-01  7.2557382221018707e-02 -1.4047076345083734e-01 -2.6661618231641249e-01  1.2551084851884942e-01 -1.1664784978809697e-01 -2.3931684576172388e-01  8.3499238322102001e-02 -1.8416580058332327e-01 -2.5687320519241624e-01  1.1881486165784688e-01 1.0105949883592842e-01 -2.4153207520397171e-01  5.9232879276873721e-02 -8.2156415877274042e-02 -2.6902406399123907e-01  2.4870862676856488e-02 -1.2671715386651736e-01 -2.8291298336284199e-01  -1.1880285644452640e-01 1.4603750919666647e-01 -1.9469678255486370e-01  -1.4286244293552031e-01 -2.0003907150335298e-01 -2.9855643574901519e-01  -9.6256235182976491e-02 -1.7033325571203697e-01 -3.0300701634085592e-01  -1.0523334854520620e-01 -2.4570113489596362e-01 -2.9786953652889958e-01  1.6264429059913454e-01 -6.3276561773081344e-02 -2.1739777882094349e-01  1.9180494232474962e-01 -4.0059900539640599e-03 -1.9752735290554307e-01  1.8620049674862482e-01 -9.9659043828637286e-02 -2.0166585334620227e-01  1.4961728545485642e-01 2.3375958904630990e-02 -2.2217077738689700e-01  -7.8563577900349749e-02 8.2294366579853728e-02 -2.7560337853734235e-01  -6.2395078393192686e-02 -8.3604730931514486e-03 -2.8853389879244817e-01  -3.2591200224489962e-02 8.7587531517254555e-02 -2.8093477851819004e-01  8.9599792689050398e-02 -2.2188845902974472e-01 -2.4626055786513745e-01  3.3677547230064220e-02 -2.4583732401981076e-01 -2.6753054554358219e-01  1.0488012361817596e-02 -2.0083957534539709e-01 -2.8364302715242490e-01  -2.0316756431607319e-01 -1.5002828270180948e-01 -2.4751968504804903e-01  -1.6475536511038058e-01 -8.8509581441650484e-02 -2.5773271429610767e-01  -1.7327161772649552e-01 -1.6618923169322955e-01 -2.8266752432031428e-01  -5.5688816316968967e-02 -2.1330298202697523e-01 -2.9650896191034970e-01  1.7271544687425724e-01 8.4421563681553152e-02 -2.0750169154045409e-01  -1.5916214907103973e-01 -2.4514072939532469e-01 -2.8917825831770666e-01  6.4583194887613854e-02 2.5889240884448145e-01 -2.5233660681837339e-01  5.1641289070322262e-02 1.9906113644491349e-01 -2.6790818605234867e-01  1.7502239454811194e-01 2.0713434431704145e-01 -1.8304006047493440e-01  6.8243975150365149e-02 7.9695553267980265e-02 -2.6040970846704109e-01  1.7116599920939005e-02 8.4011561494344147e-02 -2.7659433797705618e-01  6.2732058221754039e-02 1.3642372630783112e-01 -2.6741406522149186e-01  1.0053914273052073e-01 -5.8979337844706284e-02 -2.5141616756785634e-01  1.0136324022361483e-01 2.4174437292453117e-02 -2.4245627676433626e-01  1.6331618990058791e-02 1.3385267660621350e-01 -2.790298173560