<?xml version="1.0"?>
<VTKFile type="UnstructuredGrid"  version="0.1"  >
<UnstructuredGrid>
<Piece  NumberOfPoints="624" NumberOfCells="1872">
<Points>
<DataArray  type="Float64"  NumberOfComponents="3"  format="ascii">-2.372317774102401 1.064922680036921 -1.332371679854488e-15  -1.488515780766734 -2.924803386524488 -2.176728126293672e-16  -2.54517768950819 0.361090845337896 -1.110363280580507e-15  -2.53402928508966 -0.3554625559083634 -6.675120197930383e-16  -2.286628704399625 -1.029895317163379 -6.654574877167642e-16  -1.817850403922101 -1.578586587782808 -4.434104065298403e-16  -1.21074147392672 -1.97459972308787 -4.440714794090794e-16  -0.5187299129963251 -2.2011570716305 -4.470227887159723e-16  0.2102226691413681 -2.237699570233739 -4.456180341016492e-16  0.9287860037676601 -2.122901754423467 -4.433907118201641e-16  1.588374697573371 -1.824288865369637 -4.437847821452784e-16  2.130631320320217 -1.346320649348696 -4.433796823162421e-16  2.516244452139519 -0.7366059857033704 -6.65854139517504e-16  2.703932719081634 -0.040464955086546 -8.880668087206561e-16  2.620063463950863 0.6746153397362269 -1.109948796546784e-15  2.314671810001709 1.325903252126168 -1.33258597967304e-15  1.846860082138862 1.879166972403649 -1.330625234470272e-15  1.254176353474014 2.302346246256278 -1.330033273497993e-15  0.5763241884670077 2.577060300152346 -1.551774671606128e-15  -0.1482432006945021 2.666304513940962 -1.552142157209595e-15  -0.864050244706183 2.541067092771983 -1.553929769823867e-15  -1.508006245696586 2.209326035481247 -1.33213350931714e-15  -2.019231707473928 1.697817116365518 -1.332685101909187e-15  -0.7703686092861366 -3.175964378618177 -2.252209548999701e-16  -0.01454732485979703 -3.263061464105855 1.438738331648835e-19  0.7430842755918684 -3.192079058896779 -2.228764125965009e-16  1.471391325353907 -2.971480092021022 -2.176791449603646e-16  2.135748912687246 -2.599805691290703 -2.227041559525587e-16  2.701174842737816 -2.092319477692149 -4.421825027735821e-16  3.146441171301265 -1.476318515813645 -4.432270438909486e-16  3.456521950530776 -0.7830038740895978 -6.634888737139752e-16  3.623648110855092 -0.0386120477654153 -8.875271596565057e-16  3.590100719369033 0.7261362139286281 -1.110111243784063e-15  3.328533628441097 1.444534522919594 -1.330766399416435e-15  2.881091970447882 2.062465439342374 -1.331807281533544e-15  2.299080128277814 2.550968630779554 -1.55772119198149e-15  1.627891357882019 2.904335692929807 -1.548083086378981e-15  0.9034755272887359 3.121877236209221 -1.549650157077749e-15  0.1574764129617305 3.24896636375125 -1.770918800720934e-15  -0.5994182027356916 3.251394324602662 -1.774912568151445e-15  -1.338267768163313 3.09296420876134 -1.553151087012453e-15  -2.009318386595247 2.74347897787662 -1.551630901186881e-15  -2.572448558132034 2.237974044752123 -1.332172847601078e-15  -2.998015483725336 1.612221385957406 -1.329815868767469e-15  -3.266051242951398 0.9046292386893728 -1.103594935742754e-15  -3.367847924508113 0.1553592953435022 -8.850057350099753e-16  -3.285477378811255 -0.5960693309010474 -6.678214531189265e-16  -3.040787836656234 -1.31198632742479 -4.418016205595578e-16  -2.649513201886567 -1.960599462566498 -4.430208445099019e-16  -2.124956608596667 -2.508814771075112 -2.255515904286526e-16  0.2679746729757809 -1.723269643583006 -4.495300210799622  0.5140954634865085 -1.384681126208527 -5.059632995314963  0.9224966693194073 -1.724942274000057 -4.57666665858028  -2.838852228670298 0.3015470838529284 -1.613635132296538  -2.665801819473755 0.8768521893167468 -1.752704884216707  -2.782588434051091 0.4960083113754609 -2.078676443437131  -0.4904387614230247 2.596837921087687 -0.4998901352273756  0.1702829828441117 2.582995471686193 -0.6009745468626333  -0.4783767858786524 2.38285250267311 -1.180213724634349  -2.668326282506478 0.8357281683635908 -1.235784590502779  1.188124791014999 -1.344775880139352 -5.246774307936531  -1.332530290602296 2.063101730635881 -3.509563531032438  -0.9938672533978191 2.328956015334287 -3.004963358233848  -0.7830849000897124 2.315952487638561 -3.473443216851655  -1.559809434155661 2.048378771133472 -2.758269235223913  0.6730313285214767 -2.414019269896093 -0.6669948716651225  1.00497998653952 -2.469115886200504 -1.330456665948751  1.279946489398709 -2.240859372634082 -0.6525404277919715  1.649949960886338 -2.125647912236417 -1.265167583627939  1.455096982665111 -2.24026431106667 -1.989102179789379  0.7352751879043293 -2.551043823732348 -2.110204324584187  -0.2241217653726618 1.583706986168315 -5.184410645034606  -0.7890375958657585 1.635110279545459 -4.692791326349878  -0.1982754332608072 2.064148428346564 -4.477857429780982  0.4328288829468 2.32045614789398 -1.294179940017227  1.20698490370449 2.13822401032089 -1.181245511160717  0.9444752701827696 2.140468791862701 -1.949192253990242  1.914553576975474 -1.811030418591134 -2.580560770948428  2.026489523412845 -1.7752013161164 -1.744591546798235  1.910391230105919 -1.70445642789276 -3.544856867187461  2.266451055835679 -1.360996322752665 -3.278930741198075  2.349515269119998 1.24980557700084 -5.180969307627878  1.804843869200568 1.525554989772537 -5.273808571001918  2.013722211892225 1.671082990036819 -4.58394720988651  -0.9112515486948871 -2.435858922236412 -1.304445503069507  -0.3329025593256749 -2.550675300130887 -1.256060131314195  -0.8681246101876895 -2.353669951104499 -0.724968457937314  1.954687571720497 -1.803284038976955 -0.6348904220507344  0.2435539861788517 -2.559798593065522 -2.670225540453474  -0.05881311383798645 -2.620542444653474 -2.023311555424689  2.81370077251524 0.7485937965519307 -4.969095421750787  2.617057883875389 0.7869571429114365 -5.775642702786382  0.3943620900571029 -2.601763633518281 -1.443840932032261  -1.469729809967035 -2.08502679411811 -0.5768301097472318  -0.1734147853805834 -2.30705237334575 -3.332220441255346  0.7336280976784024 -2.302673527102318 -3.401436406993307  0.8557854619526143 2.407206932716901 -0.6707468423759484  2.391498436821034 -1.305579094203384 -0.6152867955800445  0.4900778393838021 -2.055199289608169 -3.997689833171538  2.410799093682273 -1.263142422813594 -1.392375962660601  2.57895399679785 -0.7468325307702276 -1.648471993101833  2.662259387278403 -0.7934255116371532 -0.9530961493734951  2.360262667944005 -1.172166625674034 -2.117173248384812  -0.1987279373806282 2.337054876003287 -1.997640264327625  -1.907502107175739 -1.892102680783518 -0.9123114651361811  -2.27277591233457 1.476951022769266 -0.79702747850307  -2.434331219766309 1.289943870726404 -1.615709191783104  2.146358745661734 -1.677957620746057 -1.166190553456356  -2.31370100770206 -1.419870995494588 -0.6869392966493961  1.550480470170395 2.094131525088717 -0.6017874465486225  2.555296786424544 -0.5655386578498031 -2.271285975302308  2.703364970431158 -0.09990692837243739 -1.605950983392423  2.799240378221457 -0.2700322044910761 -0.6703464558378806  -2.574150261084049 -0.8837069944953566 -0.5138029912099625  -2.649869902101209 -1.019474222988387 -1.215680566872803  -2.308350624487251 -1.556243708240221 -1.285679295816897  1.417047267699058 1.880182447075716 -4.904035774148038  -0.3650896325363922 -0.09055422829131633 -5.566599211383775  -0.3411312135416119 -0.6449258918489694 -5.288822683621123  -0.8598170052295203 -0.1904386827863434 -5.084168033571806  0.3431066280855284 -0.4237863823580252 -5.889675863111786  -1.338995725786346 1.248001608176722 -4.462214762190736  -1.788649419268793 1.222423731728603 -3.990925501320637  -1.483513399198149 1.634846236483834 -3.964408211118171  -1.931262466337968 1.561256831107613 -3.4318615346254  2.260641457231849 1.152394773691156 -2.459255023103264  2.455181269578519 1.138823083501707 -3.089785761795314  2.021979677365183 1.519133521586226 -2.842817051310534  -2.408560203587896 -1.329951843261173 -1.90093837167041  -1.368871002465402 -2.261063654384272 -1.34807232717741  -1.896199234460048 1.813579047785907 -1.432261023927427  -1.727852830453721 2.042124754597384 -0.7410091892946821  2.146241531105286 1.606216255632053 -3.774316944495213  -1.150490274589927 -1.331338024524233 -3.915516174579074  -0.8394667691658524 -1.877071677533337 -3.545647313245297  -1.418864644372547 -1.497966723273151 -3.399443212507815  -1.339438399333521 -1.896009059169292 -2.928867049820667  -1.327770059340209 -0.7704107929042029 -4.216653183584799  -0.8576747775168891 -1.185721464828135 -4.373039763194708  -0.8645312083236801 -0.7333558575135644 -4.7514768852997  0.1476035817377544 -0.9854486481458212 -5.35116019161822  0.7675342032187685 -1.03424451280122 -5.628147701939901  -0.2604199082771922 -1.256573392406474 -4.81301417493126  -0.9081129125873743 1.960282891063706 -4.093689559933528  -1.302068315341142 -2.192746594549832 -2.244205930236776  -1.905744651240783 -1.909043759076288 -1.732954497150534  -1.856636786025471 -1.720332010429079 -2.403614864666208  2.535856234334801 1.24709765522578 -4.445425758304612  -1.118691831441749 2.396169362934943 -0.6754339617442697  -1.253640036290436 2.178226489326044 -1.262477728516312  -0.2715750221358772 -2.395916051426986 -0.5113124705399571  1.850032893992254 1.800789068244494 -1.041432548689158  -2.418284272760117 0.984353838445012 -3.03433479933817  -2.158036930252071 1.548178549667118 -2.655800943122653  -2.243732427148457 -0.2291923144825562 -3.376112866328664  -2.234254722449187 -0.8278018924492935 -2.958944895976948  -2.556762715574645 -0.2583999515857832 -2.797405289919033  2.670347372299261 0.04519354190290101 -2.597540059179416  -1.832352409002527 -0.8322056520333315 -3.53720979641328  2.597375581354927 -0.8069139150843215 -3.661150078764892  2.424198450876809 -1.096993191890268 -2.796582655877836  2.655365832433124 -0.5266334578760934 -2.925327183574086  -2.13476779992619 0.3053825398932838 -3.721306340307848  -1.79892978058553 -0.2223487465081032 -3.984849813249213  -0.5090130613695008 -2.475476576818461 -2.533051727943286  -0.884251344159401 2.295938742760804 -2.35876479373231  -0.3554858457915446 2.456568211061954 -2.827032
[...]
<PointData  Vectors="f_2961131-0"> 
<DataArray  type="Float64"  Name="f_2961131-0"  NumberOfComponents="3" format="ascii">-2.6331950999805731e-01 1.4666544292291683e-01 0.0000000000000000e+00  -1.2806415343349700e-01 -2.7459506235553377e-01 0.0000000000000000e+00  -2.9490271515793282e-01 5.2955523110604301e-02 0.0000000000000000e+00  -3.0551966909969402e-01 -5.6919868402541457e-02 0.0000000000000000e+00  -2.9321039050100967e-01 -1.6875869442345109e-01 0.0000000000000000e+00  -2.5697686684149207e-01 -2.7208564087455339e-01 0.0000000000000000e+00  -1.9698610207883460e-01 -3.4960227616253942e-01 0.0000000000000000e+00  -1.2201148036567024e-01 -3.9386186792689637e-01 0.0000000000000000e+00  -3.9366180213410470e-02 -4.0465425510493569e-01 0.0000000000000000e+00  4.3580396880131468e-02 -3.7915076696319205e-01 0.0000000000000000e+00  1.2464617508185419e-01 -3.2466684338595542e-01 0.0000000000000000e+00  1.8726883460428262e-01 -2.4652903040358887e-01 0.0000000000000000e+00  2.2339337564171041e-01 -1.5074157354836953e-01 0.0000000000000000e+00  2.2972679606937443e-01 -4.6439013707985380e-02 0.0000000000000000e+00  2.2797879000070653e-01 5.8570984771406404e-02 0.0000000000000000e+00  2.1553969675391149e-01 1.6572504569408830e-01 0.0000000000000000e+00  1.8967191523008192e-01 2.5822251637877214e-01 0.0000000000000000e+00  1.4433391826993958e-01 3.3120447566076722e-01 0.0000000000000000e+00  7.9649311453408589e-02 3.7224904069616555e-01 0.0000000000000000e+00  2.5155635791909966e-03 3.7371225978576134e-01 0.0000000000000000e+00  -7.6638340024597143e-02 3.4224597023109288e-01 0.0000000000000000e+00  -1.4760890592496484e-01 2.9036733919022384e-01 0.0000000000000000e+00  -2.1300428114608702e-01 2.2570346071298897e-01 0.0000000000000000e+00  -7.9896698236777169e-02 -2.9693854160573030e-01 0.0000000000000000e+00  -2.6989575887154331e-02 -3.0197768520796825e-01 0.0000000000000000e+00  2.5074797998407564e-02 -2.8823033440531620e-01 0.0000000000000000e+00  7.0636988935978723e-02 -2.5698286182948160e-01 0.0000000000000000e+00  1.0573642327607888e-01 -2.1640838465082307e-01 0.0000000000000000e+00  1.3429360984282501e-01 -1.6517670117231434e-01 0.0000000000000000e+00  1.5054534360178592e-01 -1.1036435385277046e-01 0.0000000000000000e+00  1.5385592322000602e-01 -4.8414556181654730e-02 0.0000000000000000e+00  1.4374449538132938e-01 2.1280600329114160e-03 0.0000000000000000e+00  1.3581526646508429e-01 3.8665895756024145e-02 0.0000000000000000e+00  1.3910306325632230e-01 7.8438862596743986e-02 0.0000000000000000e+00  1.4445718755194503e-01 1.2973243861714792e-01 0.0000000000000000e+00  1.3656149960252995e-01 1.9635725479729990e-01 0.0000000000000000e+00  1.0939722445319162e-01 2.5707369957876131e-01 0.0000000000000000e+00  5.6409968174512402e-02 3.0156047725823598e-01 0.0000000000000000e+00  -8.4823736049250264e-03 3.0791833880726899e-01 0.0000000000000000e+00  -6.9006744061988284e-02 2.7958054969462848e-01 0.0000000000000000e+00  -1.1248594945843450e-01 2.3403001239703866e-01 0.0000000000000000e+00  -1.4047419801521344e-01 1.8984213579731171e-01 0.0000000000000000e+00  -1.6751286344327779e-01 1.4341037215983096e-01 0.0000000000000000e+00  -1.9025501362013944e-01 9.6354288483014527e-02 0.0000000000000000e+00  -2.0633705776523931e-01 4.5586546747920474e-02 0.0000000000000000e+00  -2.1615017013743046e-01 -1.0577513307257945e-02 0.0000000000000000e+00  -2.1989525600209989e-01 -6.7224562815451694e-02 0.0000000000000000e+00  -2.1448455377622261e-01 -1.2913127646620484e-01 0.0000000000000000e+00  -1.9767644520212654e-01 -1.8777593627192715e-01 0.0000000000000000e+00  -1.6806451074687520e-01 -2.3755727012547725e-01 0.0000000000000000e+00  -4.2579363746450355e-02 -2.2079063237899760e-01 -2.0890189470954104e-01  -3.3091224375337090e-02 -1.8957733434237869e-01 -2.1667011688150883e-01  2.0027720616266363e-02 -2.0763081323704369e-01 -1.8332221085863770e-01  -2.3342565262770304e-01 1.4946804872251878e-02 -5.4428945110771176e-02  -2.1524538345314917e-01 7.8620921483826198e-02 -5.6373686164192319e-02  -2.1627587499540016e-01 2.4998997390861196e-02 -7.9679568738937140e-02  -4.2358045783277884e-02 3.5733732667279539e-01 -2.1337109299812262e-02  2.7805461673416278e-02 3.7388538093144191e-01 -2.5027296753969079e-02  -3.6943446118341210e-02 3.5005917070138470e-01 -3.9768469922052678e-02  -2.3636907665797122e-01 8.5256519163671635e-02 -3.0511449977302103e-02  2.3883188300686066e-02 -1.6716567332170879e-01 -1.8395044125274529e-01  -1.0605120255333343e-01 1.7272252306793326e-01 -1.2315947269165448e-01  -7.5853681396209849e-02 2.3540054862091153e-01 -9.1945788629310965e-02  -6.1532690076278679e-02 2.2027873613072363e-01 -1.1438475806864311e-01  -1.2035519275386695e-01 2.0289088854503878e-01 -8.5416823290368163e-02  2.5108371790657936e-02 -3.7271199609436356e-01 -2.8554531792053424e-03  6.1701915614823057e-02 -3.2413915254309794e-01 -3.5495998072567099e-02  9.1782267730371417e-02 -3.3638088536970095e-01 -4.0167140773438624e-03  1.3234823968232079e-01 -2.8392426260040954e-01 -3.1981941000623494e-02  1.1463117365088281e-01 -2.7269588578248932e-01 -6.5722140428315826e-02  3.4543548988237097e-02 -3.0020243174730227e-01 -7.7597596070670211e-02  -6.7695729650929085e-02 1.1724582188983318e-01 -1.8927871341358049e-01  -9.7375837562081194e-02 1.1803129405210838e-01 -1.7522474705795374e-01  -4.2293673009403378e-02 1.8671996339691957e-01 -1.5207027346492169e-01  5.6765929235597347e-02 3.6441176903414929e-01 -4.0720477575822991e-02  1.2907896488899412e-01 3.3141886538778759e-01 -3.8749237446321416e-02  1.0815382377759779e-01 3.3264771261096870e-01 -4.6474000784851865e-02  1.6378121263448375e-01 -2.1529556639863495e-01 -7.6534906580295575e-02  1.7780623550228844e-01 -2.2702772138358437e-01 -5.0357427056368850e-02  1.3891623787876331e-01 -1.9258680257579969e-01 -1.0875202909620546e-01  1.8363344946116597e-01 -1.6059257760397944e-01 -8.3526491921512097e-02  1.2551509407578199e-01 1.3933500770040005e-01 -1.1830122172335208e-01  8.6584151552780500e-02 1.6719782144540682e-01 -1.4049127546986628e-01  1.2974803853725186e-01 1.9112226400414864e-01 -1.1227358132813468e-01  -1.2690258608334126e-01 -3.3500301330447779e-01 -4.1689839697263989e-02  -7.4803434724797890e-02 -3.5536907874473278e-01 -3.3691851179090966e-02  -1.3321223851340822e-01 -3.6406102315712746e-01 -8.6138924199113519e-03  1.6293853524783231e-01 -2.6861076007955348e-01 -7.2840753752801760e-03  -1.6619404517911347e-02 -2.8515288900104058e-01 -1.1449511468392004e-01  -4.5411700111808083e-02 -3.1585216382772585e-01 -7.9799721651354905e-02  1.5763769188412249e-01 8.2828218887715133e-02 -9.6720532021936520e-02  1.0817478421261645e-01 8.2157348243444409e-02 -1.2045851518139028e-01  -2.7590072311886255e-03 -3.4077148839474863e-01 -4.2034434615538921e-02  -1.9502992931214200e-01 -3.2609275057711073e-01 -4.7669871183444595e-03  -6.4444348420928388e-02 -2.6422101564195494e-01 -1.6104020847632922e-01  2.4618753567597233e-02 -2.5178423802955213e-01 -1.4258500817432068e-01  9.8067418634582043e-02 3.5890536332729167e-01 -2.5745498558166373e-02  2.0564735006889742e-01 -1.9624446548024599e-01 -7.8862221424943740e-03  -8.5592395156952605e-03 -2.3728791607334410e-01 -1.7797647333370131e-01  2.1577117750371871e-01 -1.7154831339153559e-01 -3.6451439090926949e-02  2.3553392782571270e-01 -1.0367533202742554e-01 -4.0800213373576241e-02  2.2672168362015818e-01 -1.1778002962369358e-01 -2.0708572426530836e-02  2.2148282645330142e-01 -1.5335638487893122e-01 -5.2999668618305532e-02  -3.5149244952431950e-03 3.3663419125200672e-01 -4.7437669792221797e-02  -2.1718415419771508e-01 -2.6980865715619695e-01 -2.2572141078353820e-02  -2.1992776763997268e-01 1.7502641157829066e-01 -1.5726552653841104e-02  -2.0302726961049239e-01 1.3540014736326103e-01 -4.6616655529225920e-02  1.8422847698365735e-01 -2.2815644077340089e-01 -2.8282733233984943e-02  -2.5681208413221485e-01 -2.0951701446448678e-01 -8.6608176884372598e-03  1.5643763563615026e-01 3.0526343590554789e-01 -2.0686394343649658e-02  2.3981029086750449e-01 -7.8791129285045489e-02 -4.5884119072941654e-02  2.3562774924093344e-01 -1.8735518424268176e-02 -3.6748453540279662e-02  2.2799679165981548e-01 -5.3641008618389392e-02 -1.1894045310467434e-02  -2.8291732748637055e-01 -1.3711078696220622e-01 7.9497269296721368e-06  -2.4896076254705338e-01 -1.3853527146310154e-01 -3.9233352166492007e-02  -2.2942970382238231e-01 -2.0668246175222699e-01 -4.7784293645622720e-02  7.4729690518153882e-02 1.9706277576619952e-01 -1.4100975930339349e-01  -1.1437374741561732e-01 -7.4381680698822422e-02 -2.5592839356070179e-01  -1.1770825392934083e-01 -1.3625243469542431e-01 -2.5685910807516732e-01  -1.5157704274516312e-01 -9.6313470313242625e-02 -2.5228255483463963e-01  -6.5034589510902685e-02 -8.8701944087048540e-02 -2.3775769662035631e-01  -1.3914254211352578e-01 6.5106594579709937e-02 -1.8292536123273628e-01  -1.5556353032390124e-01 6.1464260080030156e-02 -1.6585360023138909e-01  -1.2812911159886561e-01 1.1481765122893622e-01 -1.5558905150151855e-01  -1.4897223539316123e-01 1.0985718905807842e-01 -1.2885722317759202e-01  2.0899289304613450e-01 1.7354623420334930e-01 -4.2035628971118115e-02  2.0221880152377233e-01 1.5109811154449027e-01 -4.9256161654311049e-02  1.8491711776954831e-01 2.2271111884614975e-01 -4.9641699901839351e-02  -2.2208527699958416e-01 -1.7620179283126955e-01 -9.2367783158341474e-02  -1.6400281805345265e-01 -3.0647204877615791e-01 -4.9155191748577534e-02  -1.6807301201394495e-01 2.2041810884400118e-01 -3.8461522688705542e-02  -1.6703047064512905e-01 2.5458384287013064e-01 -2.1228913680581600e-02  1.6587525930606456e-01 2.0287866394750709e-01 -7.6308668072823577e-02  -1.7790561232358804e-01 -2.0853109384832361e-01 -2.2236418203538394e-01  -1.3956762778388038e-01 -2.4680891339324199e-01 -1.9395378427317725e-01  -1.9059713054551627e-01 -2.2099798978287388e-01 -1.9926318110666730e-01  -1.7175568084319767e-01 -2.4844803340686483e-01 -1.6329425892043772e-01  -1.9426200038381758e-01 -1.6017972380640089e-01 -2.3629012503553998e-01  -1.5659863199846338e-01 -1.9530615431496354e-01 -2.3820421350807414e-01  -1.5841918162379345e-01 -1.5378391511548126e-01 -2.5034842884813313e-01  -7.5020848853693770e-02 -1.5883176658095707e-01 -2.4194310358584148e-01  -2.3212122220661470e-02 -1.4038968767570709e-01 -2.1285806320985468e-01  -1.0311774730242201e-01 -1.9373886404055926e-01 -2.3994945564129005e-01  -8.7487312827628755e-02 1.6492684679902417e-01 -1.4874798459920868e-01  -1.5622976765099292e-01 -2.7553654412367884e-01 -1.1208317223894483e-01  -1.9675272949476563e-01 -2.4615497489760141e-01 -8.0024628979751489e-02  -1.9727105000304929e-01 -2.2900849892450434e-01 -1.3122108663606322e-01  1.6625370101944545e-01 1.4049050827668569e-01 -9.1741933928147848e-02  -1.0627328326889419e-01 3.1506780418836139e-01 -2.3867820059909176e-02  -1.1274604697998934e-01 2.9492186534448345e-01 -3.7637846028765000e-02  -7.7506960036518996e-02 -3.9365803937409910e-01 2.2545283733393435e-04  1.7766118152961013e-01 2.6268708443733485e-01 -3.2578281452262658e-02  -1.8519153927698775e-01 5.2436367249042590e-02 -1.2212975380393601e-01  -1.6460746492176576e-01 1.3479393461478834e-01 -9.1331806181736766e-02  -2.2126399690899984e-01 -9.5337518759244622e-02 -1.8500151453017835e-01  -2.2540626946935299e-01 -1.4852743455664727e-01 -1.7063944688737312e-01  -2.2393887541291069e-01 -7.9680230761699833e-02 -1.4444528684639116e-01  2.3426996069355838e-01 4.9995544401531993e-03 -4.0712737210197275e-02  -2.1887275476184859e-01 -1.6261538602402137e-01 -2.0840116396619149e-01  1.9961742282795597e-01 -1.0028520137760871e-01 -7.5514170020569815e-02  2.1429921964021678e-01 -1.3632968758345909e-01 -6.1420342354604356e-02  2.2794954353325753e-01 -6.8223386082793366e-02 -5.1483655509675007e-02  -2.0324944537693604e-01 -4.2780232363764895e-02 -1.8622944884980414e-01  -2.0979600582878882e-01 -1.0501107770234770e-01 -2.1911295770910269e-01  -9.0054337633092021e-02 -2.9058157160714432e-01 -1.1829646591600483e-01  -6.8029297856140203e-02 2.8388888614868091e-01 -6.0949892707010220e-02  -2.0770579388853811e-02 2.8731169246209171e-01 -7.6532456896055742e-02  -2.0577843481025623e-01 -1.9537453015908063e-02 -1.4912433442368486e-01  -1.2336347870178795e-02 1.7967572239986107e-01 -1.6095776193656749e-01  5.7123583138004377e-03 -7.5755793033423738e-02 -1.9210478955114962e-01  -4.0353063082153570e-02 -3.3268667437312757e-02 -2.1362863168891241e-01  7.3350775371364731e-03 -2.6804678993190903e-02 -1.8060633899348549e-01  2.1513430346741633e-01 -1.4162644586700949e-02 -5.6984079827453696e-02  1.8147926892238658e-01 -4.2429146662742639e-02 -8.0006091613224958e-02  -2.0844418539680304e-01 -2.0606883132832168e-01 -1.7491588385654142e-01  -3.1868290534964636e-02 -3.8368792938158996e-01 -6.4574126796171248e-03  -2.4729004753414410e-01 -5.5696380433337550e-02 -4.5863564863645331e-02  -2.5792346985408937e-01 1.7073171177850795e-02 -2.1906245616890349e-02  -2.1870415557205328e-01 -1.8055883874221132e-01 -1.3946628186369336e-01  -2.2802181332136390e-01 -4.9160074568392324e-02 -8.8201507899063072e-02  -6.2925927080489011e-02 3.2366175616708809e-01 -4.2881601739706017e-02  -1.1423696903139255e-01 2.6293825863216058e-01 -5.2078220471426996e-02  -1.0962806497006698e-01 -3.1514530674634667e-01 -7.5165732693991599e-02  5.0272851564109086e-02 3.2280517415868254e-01 -6.1041048625633289e-02  2.4577044318341720e-02 2.8629739985631808e-01 -8.8744522855548666e-02  7.2328659895600986e-02 1.2329655333737931e-01 -1.4247505760416337e-01  -1.8420470010881429e-01 -9.7756683373945150e-02 -2.3727561441861564e-01  2.1623927264774176e-01 1.3264800608086152e-01 -3.1845194138203053e-02  2.1881474627421146e-01 1.4419969422479212e-01 -4.1252162796574281e-02  1.9869363319513067e-01 2.1291388610233544e-01 -3.9753118354580397e-02  1.9340684404139075e-01 2.2677978623576683e-01 -4.3985232490677061e-02  -1.7911677062822362e-01 1.5971065689010336e-01 -6.1048906887616682e-02  -1.4726381229389682e-01 2.0231637738762406e-01 -6.3765886604114391e-02  7.5031732477176094e-02 -2.6344741823950646e-01 -1.0043552240674936e-01  1.6452056710735755e-01 -1.4906207006967340e-01 -9.9530781225980997e-02  1.4966288525413904e-01 -1.2236037356519398e-01 -1.0533170970056736e-01  7.1069606218908218e-02 -2.1366894713646975e-01 -1.4954902089943278e-01  -2.3237977944190855e-01 -1.1034749136072114e-01 -7.8965373476742123e-02  -2.2621720397340619e-01 -1.2477032534858247e-01 -1.1933545119652630e-01  -1.9546186171652932e-01 8.6382183660735135e-02 -8.1098862539576114e-02  -2.7539232262795760e-01 -6.6324877098413046e-02 -1.1286730843852939e-02  2.5525715669268197e-02 1.8137501906765913e-01 -1.6121910032432535e-01  -1.8383682617330518e-02 1.4295688551731872e-01 -1.8404430275263536e-01  1.6565396470816429e-01 2.8366843225386584e-01 -4.3306490599757871e-02  -1.5907363454585197e-01 -2.4585222814296565e-02 -2.2145268257658424e-01  -1.2077902042736477e-01 4.6408904052670660e-02 -2.0593350598923604e-01  -1.7967425099230899e-01 -1.8174396202436223e-02 -2.0069375793011826e-01  -2.9017144094733871e-01 -5.1318057663454226e-03 4.1461572340487033e-03  -2.6720714417134078e-01 8.6465074210271858e-02 -3.2209098583563865e-03  2.2320352510633659e-01 4.3462521196992634e-02 -1.8244700821499642e-02  2.2705203907713989e-01 7.4067689400502623e-02 -3.5448583641562337e-02  -2.0898550238344821e-01 -2.9445020626116491e-04 -1.1204153811266852e-01  1.2473714717827143e-01 -1.7155486993114516e-01 -1.2415171743071965e-01  8.4722048530655555e-02 2.6801203363360160e-01 -9.6871587194849548e-02  2.4857652679961682e-02 2.5419694977745999e-01 -1.1565960904555135e-01  7.6720577960562017e-02 2.9367049874153733e-01 -8.1411657581104094e-02  5.4065489376250157e-02 2.3062688972684003e-01 -1.2891818790883561e-01  2.5756426677473826e-02 1.4668722092283470e-01 -1.6924705407902385e-01  -1.2395226124111627e-01 -2.2874425713430988e-02 -2.3890216299958011e-01  1.9223128319415222e-01 1.2360644985727916e-01 -6.6566364897547775e-02  2.1280406292490528e-01 6.7874023427103511e-02 -5.0474421285011110e-02  2.2358109405707194e-01 9.3370051616244690e-02 -3.9331236670544480e-02  1.9489689570148980e-01 4.9239685681940530e-02 -7.0298780223188875e-02  1.5001239657203425e-01 -2.3024414631947560e-02 -9.6866493535865239e-02  1.7095768560194607e-01 1.9902411007684744e-02 -8.6467089841231318e-02  1.0700590060668991e-01 3.1001496795020950e-01 -6.0771443776961469e-02  -1.2650193446679148e-01 -2.6986911060480429e-01 -1.5319056106031576e-01  -2.9100032666343926e-02 2.3492151982296064e-01 -1.2044064848924146e-01  -7.5566244515075418e-02 -2.4359795818019053e-01 -1.9700024660177270e-01  -1.2128128532439864e-01 -2.2405977810705727e-01 -2.2194174125465685e-01  -9.4147071867746998e-02 4.4047191902933838e-02 -2.2028678586977851e-01  1.3035022792307133e-01 2.1889224382424952e-02 -1.0724615808255415e-01  -5.0490578232369507e-02 8.7922920774453101e-02 -2.0607027077193701e-01  9.7001061088740653e-02 -2.2958377059308333e-01 -1.1769372805903364e-01  2.0340226479111248e-01 1.9031619413526038e-01 -2.2640273999039770e-02  1.5422902262554392e-01 2.8744847494464526e-01 -5.0083555354097774e-02  1.8941463839099426e-01 2.4189929845987485e-01 -1.4043703457513332e-02  1.3705292514364339e-01 2.7122216306357644e-01 -6.9541400704461409e-02  2.3254108674338120e-01 5.9500919559602704e-02 -3.8919840331486232e-02  4.9443637747298770e-02 3.4562958377868619e-01 -4.7953277735736231e-02  -5.1717135565438922e-02 3.0494587138152163e-02 -2.0891429888953197e-01  -8.4018606601779330e-02 -7.3154461099428116e-03 -2.3669732415558950e-01  -2.0434368710164737e-02 2.4377794559454217e-02 -1.8150771500292104e-01  6.6183646891916789e-02 -7.7380631315034781e-02 -1.5138316186020051e-01  6.0158383781805595e-02 -1.3255154427784840e-01 -1.5844211257861360e-01  2.2624385803286660e-02 -1.1958909220406283e-01 -1.8257213997947250e-01  2.1716322748055752e-01 1.0807866012815003e-01 -1.0271217929875114e-02  1.4400761911643103e-01 -7.6575950403462101e-02 -1.0294615600338401e-01  1.1184548944374018e-01 2.3763701926985276e-01 -1.0393680680591179e-01  -1.7952938327852469e-01 2.7906417009193545e-02 -1.5855806169991699e-01  8.3433403692904792e-02 -1.7020028863068373e-01 -1.4887688999865478e-01  1.1323582792871113e-01 -4.8789329738862908e-02 -1.1771108936963172e-01  6.5296219933536886e-03 2.2190869992979181e-01 -1.3744023455650070e-01  5.2079485107031358e-02 -2.0426597414063465e-02 -1.4916849497920717e-01  1.7063983374758108e-02 2.5095980829778573e-02 -1.5670244230967131e-01  6.2717040621044939e-02 3.1845069387035414e-02 -1.2966381623888856e-01  9.1303722953080729e-02 3.9157074860142083e-02 -1.2149880830316120e-01  6.1451738871264927e-02 7.3303098134245764e-02 -1.3990614901166407e-01  2.2532258570874202e-02 8.8930637172488128e-02 -1.6244993522685741e-01  -1.6273549808585024e-02 8.4997987013686188e-02 -1.8692033048349896e-01  1.0351190672295463e-01 -1.1289980693588923e-01 -1.2943715572640632e-01  8.7406091871994426e-02 -1.0069091443299713e-02 -1.2529327518375288e-01  6.2620529687377011e-02 -9.5865419719688976e-04 -1.4506953935612846e-01  6.5318265511710938e-02 1.4505780091026698e-02 -1.2780973715178823e-01  6.4626477239863520e-02 -1.3280597409249679e-02 -1.5158794705913817e-01  1.2521302833516182e-01 2.0708917392282086e-01 -3.2748067093776895e-02  1.4434385497119148e-01 1.4025007153424637e-01 -2.8553751239919302e-02  1.2683196448184567e-01 1.8274708470311526e-01 -4.3196238917675440e-02  1.0133054196534279e-01 2.2018122929281067e-01 -4.9197845355606583e-02  7.7393254181423496e-02 2.5283720656193376e-01 -4.3767234910545696e-02  6.7183102199537839e-02 3.9312549234630442e-03 -1.3608783380683986e-01  1.3540794192326822e-01 -1.3075165249870691e-01 -3.7128823619615260e-02  1.4699883558696425e-01 -9.3793871614619273e-02 -2.0962704608027322e-02  1.2404003552227044e-01 -1.6435752238384360e-01 -2.4950003589617763e-02  -2.0076812448716172e-01 -7.6616248385353608e-02 -4.4602666603648082e-02  -1.9757007270563184e-01 -1.3617346481646747e-01 -4.1164671294816872e-02  -4.8967893570133703e-02 -2.8070286062555172e-01 -4.8646