<?xml version="1.0"?>
<VTKFile type="UnstructuredGrid"  version="0.1"  >
<UnstructuredGrid>
<Piece  NumberOfPoints="635" NumberOfCells="1900">
<Points>
<DataArray  type="Float64"  NumberOfComponents="3"  format="ascii">0.3427806649442658 2.302103475718 -1.331748095125151e-15  1.531513472608075 -2.497620805732845 -5.727243609681878e-18  -0.3753455350365785 2.253180346691196 -1.328316726148358e-15  -1.015468105307675 1.917178514981267 -1.345487908582742e-15  -1.500699317352075 1.382828033637341 -8.848208735611925e-16  -1.759320940357875 0.7088936338667627 -8.785103425580358e-16  -1.831104808594843 -0.008570066660239139 -4.3564978693519e-16  -1.657592575463251 -0.6967437772886553 -4.477897209533408e-16  -1.243171181354825 -1.27067514391196 -1.999464510398806e-18  -0.622984949822792 -1.629641301394656 -2.582468924454258e-18  0.08496214494751896 -1.773872710010135 1.088481724758035e-17  0.8095269381670575 -1.704979170245603 -1.43752478543696e-18  1.474036039025907 -1.407746626990219 5.270697823100398e-18  1.98570424624491 -0.8948216437995155 4.21600198042025e-19  2.28436224250536 -0.2406199778058632 -4.440892098501359e-16  2.336902922112716 0.4743276770788622 -4.422859719877263e-16  2.100227984591262 1.147281566696589 -8.724453660143393e-16  1.662152876420688 1.716939779849097 -8.801217182855175e-16  1.043741783479943 2.092306908444242 -1.318504487664093e-15  2.168241317079116 -2.063491634798034 1.391498845649771e-17  2.688433024833489 -1.495372502835054 8.90571817665199e-18  3.068044784791917 -0.8248867835297488 7.975566173379137e-18  3.293126463104762 -0.08160206370374259 -4.563244633730476e-16  3.279488174650572 0.7003000014550436 -8.804983979062455e-16  2.956183368626172 1.411944938266882 -8.750110360414316e-16  2.424024559332605 1.974870182658949 -8.682310285963684e-16  1.76400640512585 2.371484037855951 -1.313771642532324e-15  1.051331156402864 2.629230158192018 -1.31578762020202e-15  0.3170733686016765 2.811500758291559 -1.344392061521033e-15  -0.4430814705082051 2.840667423187003 -1.324469993316202e-15  -1.183509714294005 2.642338309118551 -1.336017881116776e-15  -1.839360861975416 2.243223074214376 -1.340323965738626e-15  -2.356250331386963 1.673045848773557 -8.811574830561031e-16  -2.689905695556255 0.9805314775042039 -8.620215088841063e-16  -2.812864068116722 0.2235217999590175 -4.248818383474417e-16  -2.729525967011693 -0.5387938944910172 -4.243537850156553e-16  -2.46147240786998 -1.256555686327538 1.365714698521948e-17  -2.021828942569605 -1.885964542977107 -3.058730947896851e-18  -1.423068634695578 -2.366604155573168 -1.012511554677746e-17  -0.7211566465034385 -2.677950416276711 -1.382156441369128e-17  0.03439617194507436 -2.800584442741002 -5.41391418638374e-18  0.7993673268809757 -2.740106064250769 1.293273153000053e-17  2.640777624101344 0.1766388732342284 -1.155460312512306  2.414956897602052 -0.5148665819369073 -0.6626190250898597  2.568879458560447 -0.455766298880145 -1.461537816595943  -2.090840727709985 0.2186180225583106 -0.5183577895282612  -2.348131215731859 0.0458577530805899 -1.101327931970503  -2.065190117572496 -0.3977991029358038 -0.5030057551313156  -2.350355603479454 -0.6146579069306786 -1.256479797998048  -0.762124738200622 2.191081557117157 -0.8860274413980056  -0.1009162196535635 2.378377850290117 -0.670907650381394  -0.02232157955821296 2.279996055247656 -1.306979067764506  1.946666019357138 -1.072622031186002 -3.982730282137241  1.704300241154692 -1.401619304827437 -4.659043210036505  2.033433398790381 -0.8832144635127636 -4.737988494567722  -2.116470921819991 0.7201013781200006 -0.8803334216006977  -2.421880549942656 0.4810436111888409 -1.623953535000477  1.309788760781908 -2.031024004245878 -2.637391401488604  0.7115969294077584 -2.294276129044111 -2.924857834561818  1.212576282789793 -1.99357066817162 -3.323774655371284  -2.398974331139546 1.088393171373038 -3.673456392134828  -2.14068187969622 1.415544525988896 -2.976155697148116  -2.018302187389812 1.607975638572605 -3.557673735315659  2.41006913543974 -0.5483030948987221 -2.270901549834029  2.133427001103298 -1.098137598206727 -2.475200254374271  2.123246979493394 -0.6912096157596173 -3.253194296246762  0.3945670166016887 -2.109383505068994 -0.8619927509901972  1.031790270310139 -2.019534808725156 -1.12861640220233  0.7519245098687611 -1.907630542240249 -0.5078259705394053  2.26918787643261 -1.111357359335029 -1.749540581609525  1.56213758205344 -1.641468660324708 -3.905092617591092  -2.1137571070521 -1.340416719108102 -2.090080467260829  -2.406746475809837 -0.8061673991495191 -1.91863073906159  -2.244872029957068 -1.079937675019625 -2.763212760421147  -2.143543881374649 -1.192429631382055 -1.412188684613365  2.275143503301571 1.332898159981174 -1.019358307711395  2.496010457836743 0.7647491255106612 -0.7688333043496491  2.488119782181105 0.8758986836313781 -1.716225952063184  0.6543050676174014 -2.243812714513856 -1.546389173035343  1.354691814494426 -2.04121661412773 -1.792147138475626  -0.1942056034923194 2.18547981704222 -3.388090508711344  0.09929384148505077 2.110773258646437 -3.974107222275248  -0.521818780471232 2.177105369448983 -3.957644182816128  -0.3328261390901309 2.135846067294895 -4.55880603966552  -1.287269545287997 -1.931474595001673 -1.23949420126479  -1.74194110554833 -1.534560695655777 -1.045904419954734  -1.729250337566056 -1.719391679470044 -1.709187571078065  -0.9683919673492349 1.132589760029304 -6.570034149739966  -1.117283565511358 0.45605621909601 -6.907954433364024  -1.532676227380126 0.780856238041169 -6.198815072919559  -0.5312544813035954 0.868418933952438 -7.301498777612834  -1.232162914952558 -2.065124488687639 -2.003628638783943  -0.6977894193681788 -2.182244395249902 -1.29806390302699  -0.2647805050452332 -2.069795031556776 -0.7112810236440742  -0.9312258924536223 -1.859892233810416 -0.6207182509772585  1.427855065783457 -1.662536740575349 -0.654114239883654  1.971181862945541 -1.180164295455261 -0.5546612193211863  2.602602315437965 0.1616486220743943 -1.855605658483594  2.331447346450886 0.5588158019512713 -2.598964475069676  0.7302803802750849 -2.228821076228776 -3.631901213458737  0.2793852496276723 -2.388923995479545 -3.261371456297339  0.1642424380768081 -2.331923623317937 -3.848915610157613  -1.395189627973378 1.754659102305424 -0.5883359112585799  -1.537994481457197 -1.594850276990282 -4.10683988123268  -1.596050637012594 -1.192052653545481 -4.847426165770877  -1.116422610157824 -1.64798714117588 -4.847575073523572  -1.933730334612486 -1.100168556727794 -4.116014495302148  1.358863095459244 1.571393578736115 -5.77526239168769  1.159584472848991 1.493778447057323 -6.408581883359672  0.8878349013107629 1.7862732264039 -5.871891654359789  -2.480898685560783 -0.4457991983572528 -3.230112834571002  -2.612675040303578 0.1669185617928595 -3.04131330382043  -2.490796228306065 0.1288021217382311 -3.861560116993012  -0.4331294917427422 -2.305174647905492 -1.949146491784239  0.4914992800922688 1.634120950549194 -6.483208383950421  0.5576364314122192 1.966969450423146 -5.371116184592776  0.3784787460119858 1.919098636250494 -5.856989542452663  0.05134857746171625 -2.40234923782846 -2.587132625979172  -0.2839539502456869 -2.391504791812077 -3.313501896137353  -0.6882715967589306 -2.321486427824206 -2.690712612416889  0.748224566607846 -2.303986976634606 -2.24772001442031  0.2299563118641692 -2.357140323640465 -1.969026605324152  0.7221043967117998 1.909851970215376 -3.936033379774942  0.4493865730448412 2.024697572933878 -4.69910738116385  0.5002752624446242 2.006665047825297 -3.198273488356744  2.013643914879935 -0.8041962471715272 -5.559536722812833  2.21181699814217 -0.3377322574200207 -5.085064799357378  2.195314724848128 -0.1959969043074269 -5.960972393831365  -0.4029114642546018 -2.232584246314925 -4.107359377382406  -0.5949018153509175 -2.005622615953905 -4.695860223019046  0.1015055767454307 -2.168225810926133 -4.613766799391947  -2.573215143496805 0.5517707304239315 -3.617978637049055  -2.361354307234079 0.6912514597470114 -4.24381699075774  -2.536707034437352 -0.1282053089897987 -1.733146961509703  -2.559034157875587 -0.3614117149207976 -2.452794368265103  1.852548838896521 -1.628621943162812 -1.634481037822086  1.584460521033123 -1.776692198825069 -1.285898940986548  -1.830029567831596 1.34423418686033 -1.110628430120131  -1.775245219268917 1.525504769679256 -1.891230348130231  -2.137521399855176 1.02203706663153 -1.490701443378376  -1.304257071869996 1.854606115137522 -1.274814883735787  -2.289510453866562 1.040198475716309 -2.188958686534787  1.95450841054479 -1.427229047939063 -1.140957143405191  2.32221489576523 -0.9480988358060574 -1.093061919987006  2.506219689573376 0.1705228016107672 -0.5443740446559127  2.268648085448711 0.09283748292379393 -4.646083860895307  2.259072734771296 0.2926841443932789 -5.311981157446403  1.819081728244387 -1.632604825561865 -2.216890318302108  1.772962107252832 -1.445170000112768 -3.114567833448059  -0.9805931446235295 -2.002662437985716 -4.137622589197208  -1.151950607884872 2.003506683387206 -2.756322899394823  -1.63204605552102 1.847618314637734 -3.130648697841192  -1.744081717216637 1.665622125418435 -2.500608402518254  2.208505676579669 -0.3498461213049108 -4.146724860410274  -1.102353839384709 1.922744101973462 -2.098323921739436  1.733289653788571 -1.139439321033516 -5.92448363254407  1.954510769105938 -0.7679165903996198 -6.209063072896685  1.165057398907372 2.116831631371484 -1.488617408533633  0.4604675265637421 2.16501527128045 -1.782763387093114  0.6779286421103392 2.339920408412798 -0.8751034760688157  1.720141133296034 -1.288973334178057 -5.311367304791584  -2.587404961524044 0.2758502831019262 -2.387537879478049  1.243568748898535 -1.849688477396789 -4.543379326758416  0.6930077313805153 -2.157887690769569 -4.28622393086762  0.7370676085692071 -1.947876084666387 -5.171073935193718  1.748394938051015 1.307463151264351 -5.323632250983494  1.127274867336012 1.771211815363752 -5.142009100014195  1.585406452513169 1.453781446089923 -4
[...]
<PointData  Vectors="f_3694140-0"> 
<DataArray  type="Float64"  Name="f_3694140-0"  NumberOfComponents="3" format="ascii">4.4940951618694144e-02 3.6128533530673523e-01 0.0000000000000000e+00  9.3747837845008175e-02 -2.2039988219627463e-01 0.0000000000000000e+00  -4.3506925801197367e-02 3.4090636935146201e-01 0.0000000000000000e+00  -1.1970177779320992e-01 2.8984462563793895e-01 0.0000000000000000e+00  -1.8005132504265059e-01 2.1266566984186491e-01 0.0000000000000000e+00  -2.2263153133362634e-01 1.2042189147894605e-01 0.0000000000000000e+00  -2.3904179077249593e-01 1.6508130190571034e-02 0.0000000000000000e+00  -2.2925816934860899e-01 -9.7533459543787421e-02 0.0000000000000000e+00  -1.8756504383447831e-01 -2.0995968019247627e-01 0.0000000000000000e+00  -1.1781581598691512e-01 -2.9939309726151220e-01 0.0000000000000000e+00  -3.3027266898648405e-02 -3.4445314757646800e-01 0.0000000000000000e+00  5.3607878831649379e-02 -3.3883999256548097e-01 0.0000000000000000e+00  1.2906324696009319e-01 -2.8922635591884177e-01 0.0000000000000000e+00  1.8030990186083173e-01 -2.0657262055686507e-01 0.0000000000000000e+00  2.0328988091302239e-01 -1.0582147185782537e-01 0.0000000000000000e+00  2.0500069559054143e-01 4.7115028027004575e-03 0.0000000000000000e+00  1.9778880610890803e-01 1.2307787828105132e-01 0.0000000000000000e+00  1.7005513576966300e-01 2.3273344801972048e-01 0.0000000000000000e+00  1.1837620678160593e-01 3.2855539542662415e-01 0.0000000000000000e+00  1.2738643462207672e-01 -1.7472770322525527e-01 0.0000000000000000e+00  1.4098635669117818e-01 -1.1742050182110506e-01 0.0000000000000000e+00  1.3809229951115451e-01 -5.7932758302035509e-02 0.0000000000000000e+00  1.2252283836642508e-01 -8.1640286278560695e-03 0.0000000000000000e+00  1.1345971158072977e-01 2.3984137883742849e-02 0.0000000000000000e+00  1.2287687378777458e-01 6.4985219138378389e-02 0.0000000000000000e+00  1.3221276515270788e-01 1.3112781868708223e-01 0.0000000000000000e+00  1.2581348797164987e-01 2.1563016250799139e-01 0.0000000000000000e+00  7.8935666810320618e-02 2.8945523132955231e-01 0.0000000000000000e+00  5.3508928424560905e-03 3.0670156886163047e-01 0.0000000000000000e+00  -6.3298104111732603e-02 2.7014433003324334e-01 0.0000000000000000e+00  -1.0777167549713358e-01 2.1808559546731124e-01 0.0000000000000000e+00  -1.3414231749797839e-01 1.6080473464083481e-01 0.0000000000000000e+00  -1.4869513705315565e-01 1.0928138180224843e-01 0.0000000000000000e+00  -1.5779117462569248e-01 5.9252153599458665e-02 0.0000000000000000e+00  -1.6237653607020300e-01 8.6025599488685177e-03 0.0000000000000000e+00  -1.6273802441998636e-01 -4.4748781361173433e-02 0.0000000000000000e+00  -1.5107683625935447e-01 -9.9029806507825544e-02 0.0000000000000000e+00  -1.3170894651375697e-01 -1.5254939729844830e-01 0.0000000000000000e+00  -1.0148099919919949e-01 -2.0260854107062118e-01 0.0000000000000000e+00  -5.9131573841272614e-02 -2.4057544981355747e-01 0.0000000000000000e+00  -4.9969340490422440e-03 -2.6036141395496054e-01 0.0000000000000000e+00  4.9515749577283961e-02 -2.5183231603785455e-01 0.0000000000000000e+00  1.8904056710153883e-01 -1.0059774498740192e-02 -2.5518853794054462e-02  1.9975236922611569e-01 -1.0929207000858358e-01 -1.5790333988167761e-03  1.9544269528153674e-01 -7.6562535024798581e-02 -3.9269413879061486e-02  -2.3022462851300854e-01 3.5356618059017637e-02 1.5108965785372521e-02  -2.0924224641887557e-01 1.1611844637185216e-02 -6.4787931508208680e-03  -2.3009432462342005e-01 -4.8538315175024944e-02 1.7104039447188062e-02  -2.0342359130245205e-01 -6.6011070508036965e-02 -1.7211668819869245e-02  -8.1715200929033324e-02 2.9374511690748178e-01 -2.3234916209040064e-02  -1.7101220927973223e-02 3.3173585588482724e-01 -1.8294052455422261e-02  -8.0274249081480880e-03 3.2056701621686479e-01 -4.7608871140555752e-02  2.0104032812663733e-01 -1.2111147467686410e-01 -1.1436457165122733e-01  1.6108276218228465e-01 -1.4793553447667465e-01 -1.3624898924819082e-01  1.9069018521240569e-01 -9.3998744864239869e-02 -1.2863855748444619e-01  -2.0621123836590172e-01 9.5620164959747525e-02 2.2171879340650274e-03  -1.8972883502740237e-01 5.7270920671535747e-02 -3.0679283683251721e-02  1.2490187092921307e-01 -2.3414937401393701e-01 -8.9613968090960228e-02  6.3716322752435564e-02 -2.5775108721071677e-01 -9.7696150620449396e-02  1.2461756226551518e-01 -2.2263749756324047e-01 -1.0994309949650172e-01  -1.5565989506730199e-01 7.1385409813400080e-02 -1.2095143980979758e-01  -1.3983644452871224e-01 1.3394942740651830e-01 -8.3519272192546429e-02  -1.2552578092966690e-01 1.3925069800567758e-01 -1.1023583608937058e-01  2.0816581070791995e-01 -7.8224173487587909e-02 -7.9805917334182686e-02  2.0278101035855184e-01 -1.4071013502161617e-01 -8.6857666184855895e-02  2.1961401881272430e-01 -8.7427457867586975e-02 -1.0344453632398250e-01  2.1425037402879713e-02 -3.2966114897700011e-01 7.6676366100461059e-05  8.5724626685171335e-02 -2.9884444306856811e-01 -1.1592020896066908e-02  5.9353106582725045e-02 -3.3263878464022217e-01 7.8070959527177597e-03  1.9039080616755447e-01 -1.4871909311893003e-01 -5.3438302312324021e-02  1.6049895381119059e-01 -1.7841035625846027e-01 -1.2080919131309444e-01  -1.8686307047935530e-01 -1.5994617684662857e-01 -6.7452100419175709e-02  -1.9859221477724481e-01 -9.5596340140022940e-02 -5.6605191067450815e-02  -2.0434157674938563e-01 -1.4511462644442621e-01 -1.0332607694038178e-01  -1.8989501755123780e-01 -1.3663986757124416e-01 -2.8332804876262843e-02  1.6764619849390039e-01 1.3180062258726735e-01 -2.7169498677320651e-02  1.8687689456570244e-01 5.8599644587097398e-02 -1.0525142075469562e-02  1.7388754559272010e-01 7.8993838651356632e-02 -5.9071535151544660e-02  4.6038419158959704e-02 -2.9929608012675812e-01 -3.1782384840528609e-02  1.1343089138262615e-01 -2.5574464517839834e-01 -4.9680830385898898e-02  1.4185986368130151e-02 2.8415690774668978e-01 -1.0083298639744380e-01  4.1947667705003924e-02 2.7816398730665431e-01 -1.1911239170841721e-01  -1.4040097766422439e-02 2.5913516694348843e-01 -1.2078930683438065e-01  -4.8905791254409128e-03 2.4996408729446376e-01 -1.4009112930753420e-01  -1.3450481643462492e-01 -2.4960427662202300e-01 -1.7419422975166222e-02  -1.7361698455871569e-01 -1.9245441716692896e-01 -7.3628245283837929e-03  -1.6226006159954651e-01 -2.0572615758168003e-01 -4.5502427481243279e-02  -1.0476635164812420e-01 9.3005038432782433e-02 -2.2193778410911372e-01  -1.2627408559132866e-01 1.6281341418896131e-02 -2.3397259244763721e-01  -1.4016760573451664e-01 3.4919671940329571e-02 -2.1553777601657118e-01  -8.2979610502403864e-02 7.3515925516810021e-02 -2.2746903630223531e-01  -1.2403942265038703e-01 -2.5183879350464916e-01 -5.8979433436107946e-02  -8.2942302280470809e-02 -2.9198801429869981e-01 -1.9703721369752077e-02  -4.9994192679440365e-02 -3.2542629140593887e-01 6.3879131157411955e-03  -1.2091593075417152e-01 -2.8470256872948146e-01 1.1340769796832056e-02  1.2841520764531461e-01 -2.8272266623088232e-01 3.7977845936522214e-03  1.7843030955371667e-01 -2.1313491873595120e-01 2.3441148230964231e-03  1.9085309295609656e-01 -4.3118976092513048e-04 -6.2166770511384029e-02  1.9174709787711386e-01 6.4458654604216264e-02 -9.4620420630591354e-02  6.8182860537392490e-02 -2.3915789186794734e-01 -1.2263379055593278e-01  1.8448496529254180e-02 -2.5986166520321596e-01 -1.1150664341596309e-01  4.0414848059214534e-03 -2.4735802338069882e-01 -1.3604849053747212e-01  -1.5234199043847124e-01 2.3511242069626531e-01 -3.8341428778902939e-03  -1.7690990894430297e-01 -2.1119255980614621e-01 -1.6401773828194607e-01  -1.8836423010669953e-01 -1.8251286933100391e-01 -1.9322117785821308e-01  -1.4374243716026364e-01 -2.1821534934577189e-01 -1.9032816080705584e-01  -2.1019148403585416e-01 -1.6952601602261647e-01 -1.6573150215333632e-01  1.1101452313523433e-01 1.8785542720141513e-01 -1.6720368698081323e-01  7.9412909032815018e-02 1.7604157535938258e-01 -1.8985215261108412e-01  7.0662928711573952e-02 2.0805318398057371e-01 -1.7790436343105179e-01  -2.1351232597177744e-01 -8.8918948719919552e-02 -1.2168448266330446e-01  -1.9548774210401734e-01 -1.6898572019564601e-02 -1.0301909013398881e-01  -2.0230305409489069e-01 -3.9636939581001618e-02 -1.4443705995880210e-01  -5.6548978652161436e-02 -2.9073342444002925e-01 -5.1979901760799488e-02  2.1555769044881320e-02 1.8777387549454466e-01 -2.0367493260511549e-01  5.5639891204229533e-02 2.3457382846911315e-01 -1.6197963352550887e-01  2.8267950280384598e-02 2.1510990374447628e-01 -1.8482391697845790e-01  -8.8777914817707738e-03 -2.7970643192351063e-01 -8.1976921594969887e-02  -3.9539671316388018e-02 -2.6217097198600176e-01 -1.1665388560138847e-01  -7.9390406234354338e-02 -2.6823899698345888e-01 -8.9170601016974230e-02  5.8655502746141765e-02 -2.7422816824071172e-01 -6.9254317331961177e-02  5.2641412984985080e-03 -2.9396263396824951e-01 -5.2884239399944716e-02  9.4626088456436011e-02 2.7096011676404458e-01 -1.1656544044326160e-01  6.1574473564835447e-02 2.5926265568296697e-01 -1.3864527843630178e-01  7.2437219331134256e-02 2.8937501965889445e-01 -1.0152424980104363e-01  1.6963872324791454e-01 -8.0671600321412601e-02 -1.4827956658697963e-01  1.9293270385227951e-01 -3.2957501453343287e-02 -1.3162706329577817e-01  1.6974458362422137e-01 -1.2942959433970844e-02 -1.5303733892793667e-01  -5.7910317595964184e-02 -2.4761430933209816e-01 -1.5226072420724820e-01  -8.4647387988151940e-02 -2.3578871676425403e-01 -1.7770018815098343e-01  -8.7204790901219739e-03 -2.3430481681132756e-01 -1.6487723629236881e-01  -1.8100357527878344e-01 1.1031746893780290e-02 -1.2547991631099387e-01  -1.7684406696096214e-01 2.1155164581885370e-02 -1.5157425699993518e-01  -1.9732747625460151e-01 -1.5227918575710930e-02 -4.1666878797791761e-02  -2.0205272076598718e-01 -5.8427466872054752e-02 -8.1395818744833703e-02  1.5980382152522701e-01 -2.1472641165824735e-01 -4.4123066317653961e-02  1.3606173218210985e-01 -2.5258024035707144e-01 -2.2576628425779680e-02  -1.6993977074605562e-01 1.7142269825406561e-01 -1.2990017475445261e-02  -1.3742795340823091e-01 1.8893264929303030e-01 -4.0151365899369081e-02  -1.7617482714554789e-01 1.2490683290899034e-01 -2.3661394014267388e-02  -1.2029897500835322e-01 2.4320092968655760e-01 -2.8113939040492149e-02  -1.6321381950923447e-01 1.1132779782169126e-01 -5.3896847515867083e-02  1.6786248755308739e-01 -2.1248235329152823e-01 -1.8941360538146435e-02  1.9054993164683243e-01 -1.4946270712034748e-01 -1.8616431033099880e-02  2.0217615620416934e-01 -2.1229555167932072e-02 6.2992307034134265e-05  1.9838216354894231e-01 1.5919096309485126e-02 -1.1928513500120577e-01  1.8258577867940229e-01 3.9074754238613472e-02 -1.3618641760175740e-01  1.6864037223259651e-01 -2.0118524730848064e-01 -7.4411286429727344e-02  1.8747953551713947e-01 -1.7305712682200836e-01 -1.0335299844938962e-01  -1.1982006747141420e-01 -2.3888080138649018e-01 -1.6048746053602822e-01  -7.1724704228618180e-02 2.4619801083649970e-01 -7.3224604005436955e-02  -1.0218035246049319e-01 1.9596635440768978e-01 -8.7811931019827372e-02  -1.1966831872623215e-01 1.9203130719784051e-01 -6.2357370168129658e-02  2.1208948762113192e-01 -3.8751340357609160e-02 -1.1006009162345308e-01  -8.2529702454387205e-02 2.5864035449700129e-01 -5.3409325202619366e-02  1.3696776351062356e-01 -1.1514479203179796e-01 -1.6220865932938541e-01  1.5122881943933572e-01 -7.2060522464619761e-02 -1.6267658300378732e-01  9.3009871160991103e-02 2.7766124730119113e-01 -5.9132214090368222e-02  4.0073843587121079e-02 3.1214831460952536e-01 -6.7192800306857287e-02  5.8998398600667822e-02 3.2005263577405829e-01 -2.9351833894605599e-02  1.4814107235618093e-01 -1.3301327699094959e-01 -1.5150296759059714e-01  -1.8861887233675989e-01 1.5081410933247554e-02 -7.0094377904153210e-02  1.1219320533390234e-01 -1.9051780032455856e-01 -1.4353607037092253e-01  5.6906310322757454e-02 -2.2366272443327065e-01 -1.4503483262735148e-01  5.0390464639820623e-02 -2.0455363138740201e-01 -1.7050080747327173e-01  1.4741033156903999e-01 1.6128789811105984e-01 -1.4576509655698722e-01  1.0720987138634101e-01 2.2349305872177494e-01 -1.4732265785574669e-01  1.5011482187593619e-01 1.9317097031153907e-01 -1.2592099331734277e-01  -9.1473679929479038e-02 -7.6660153318925612e-03 -2.3256722747308953e-01  -1.2652216396708255e-01 -4.4444469572532903e-02 -2.3628058513118946e-01  -1.4693102281450204e-01 -2.3408782867673275e-01 -1.3570209754116455e-01  -1.9130846167475588e-01 -1.9777516731393521e-01 -1.3173160515151675e-01  -2.0994411525601631e-01 -1.2536675767804473e-01 -1.8776185951923205e-01  -2.1849202493092304e-01 -1.0593094221051177e-01 -1.5887712480908237e-01  -1.9930398528565857e-01 -4.9765016440196749e-02 -1.7850865869103311e-01  -2.0743047745401424e-01 -1.2201328537684433e-01 7.5731079101015739e-03  -1.9152741163977843e-01 -1.4027842564637449e-01 -2.0875010812773767e-01  -1.6017965961897104e-01 -1.7888151900727256e-01 -2.1450588523784542e-01  -1.6993233659145759e-01 5.4435747995593309e-02 -9.1277177396498710e-02  -6.5109750326871288e-02 1.9093434349935759e-01 -1.6582695233254244e-01  -1.1937382836616503e-01 1.2240509700046022e-01 -1.6621661578139257e-01  -7.3937566565090873e-02 2.0399348822320401e-01 -1.3582851968149867e-01  -1.0992601438711788e-01 1.1533923185157108e-01 -1.9256750800062172e-01  -2.1194254224517893e-02 -3.1318864572943844e-01 -1.9875453713290914e-02  1.6095221645869642e-01 9.9071275529367578e-02 -1.5188797290327796e-01  1.2238128192055744e-01 1.4046555319185852e-01 -1.7555801947732588e-01  1.8179826718339398e-01 1.0250333889728998e-01 -1.2139214894891776e-01  -2.5322443950556897e-02 -1.6585422462082361e-01 -2.0759533207207942e-01  -5.0513993555025859e-02 -2.0561249897655973e-01 -2.0395388871381986e-01  -9.8883118903477243e-02 -1.8606008190729945e-01 -2.1580279482232892e-01  -1.0430206284073298e-01 -2.1497540872461213e-01 -2.0254413359496831e-01  -9.2157706627137221e-04 2.2515703492004430e-01 -1.6930881809001097e-01  -6.2735310959659688e-02 1.6464602746444013e-01 -1.9861887540946002e-01  -1.5365770431605666e-01 -4.2811891572999500e-02 -2.3174102531364760e-01  6.6092435284806142e-02 2.1948243848045095e-02 -1.9296144554247149e-01  5.8343573266393417e-02 -2.4132324679268045e-02 -1.9887551260903216e-01  2.6181823463322623e-02 1.8695755703112566e-02 -1.9738569813471596e-01  1.0953973573800296e-01 -2.1333944171887811e-01 -1.2808737057374012e-01  1.3586178003066898e-01 2.1560062175429798e-01 -4.4231877316987786e-02  1.5112995371799531e-01 1.6567111815578867e-01 -6.8308980842004083e-02  1.2270972206950292e-01 2.3285331720620031e-01 -7.3412514472306054e-02  1.3938569210970636e-01 2.1237625880461530e-01 -9.7542854703952228e-02  -1.9613153985495133e-01 1.6210352380136173e-01 6.4619234334430684e-03  -1.9968265655606449e-01 -1.7691052062517157e-01 1.6874249538590534e-02  -3.7419876115698719e-02 -2.2490179359515891e-01 -1.8855474453456456e-01  1.8704156292783245e-02 -1.9574942902465284e-01 -1.9037937562653007e-01  9.7100726107032076e-02 -2.0222914580373542e-02 -1.8699462190499222e-01  1.2674938711802092e-01 2.6994441974113403e-01 -1.4222939755065651e-02  1.1928775358877201e-01 2.5837778153417396e-01 -1.0544522131452322e-01  1.4162882384465378e-01 2.2670431939997993e-01 -1.1444769847920190e-01  -7.1255632857049507e-03 6.6734941903862505e-02 -2.1576541542862204e-01  -1.2289745447804796e-02 5.4424351477184709e-03 -2.0855564894530201e-01  2.1358708922956793e-01 8.4392406254061008e-03 -1.0216030456375505e-01  -1.3859223231644575e-02 -3.2924478111486723e-02 -2.1492871920055417e-01  -4.5897752926123664e-02 6.4923228660837698e-03 -2.1994944166221345e-01  -1.3569566016119300e-01 1.1035335096044956e-01 -1.4177121833254400e-01  -5.3333342300632733e-02 2.4294829620886682e-01 -1.0062198228860300e-01  -9.7949302542820360e-02 1.8281546457538286e-01 -1.1618793651901971e-01  -1.7779058337608934e-02 3.0600180813238975e-01 -6.4604731358164122e-02  3.3860599788030979e-02 3.0327353585359301e-01 -8.3481902753980070e-02  2.0176222933070928e-01 4.8373116987376681e-02 -1.0801667059705379e-01  1.7526236707591722e-01 1.5698722183979338e-01 -1.1053645597511559e-01  -6.3642236923414516e-02 2.9144878370860849e-01 -4.7436725346452109e-02  -2.1481310313968849e-01 -1.4985232538056181e-01 -1.3471888777320387e-01  1.6479631231316291e-01 1.9266619576667862e-01 -6.5588533822470482e-03  5.4457031791851157e-02 -1.5040509026756679e-01 -1.8972775784734963e-01  1.9265448478230609e-02 -1.1871782889554099e-01 -2.0660773528158816e-01  1.6816885872085072e-01 1.3102253471823053e-01 -8.8426215544203726e-02  -1.6856417042983224e-01 -4.0324724986124133e-02 -2.1894625261514650e-01  -1.7041066403088562e-01 -1.6739440042678215e-03 -1.9582297390231759e-01  -1.8994966158364596e-01 -7.1531309026425030e-02 -2.0362012432053278e-01  2.0950906119511326e-01 -1.3909651376869898e-02 -9.4750078546294372e-02  1.1410013166854897e-01 2.4513269673184482e-01 -1.2660175285172348e-01  -1.6164818136264486e-01 -2.3338183428508899e-01 1.1722040968184685e-02  1.4315420778681270e-01 6.2885266746512250e-02 -1.6959950858298478e-01  1.3828675897229362e-01 -1.8615582971423798e-02 -1.7138091915148135e-01  -1.3868476148396661e-01 -1.0021128043777833e-01 -2.3324584882938812e-01  -8.9423039058297876e-02 -1.3656321363382479e-01 -2.2430262410129453e-01  -1.3771992542666256e-01 -1.5220106597046043e-01 -2.2556167265176200e-01  -1.7060183516567598e-01 -2.0472321007605579e-01 -8.7570287199638872e-02  -1.3953609285346877e-01 -2.3942809590923636e-01 -1.0456258519498084e-01  -9.1880595791828432e-02 -7.4149404555287096e-02 -2.3222487850321355e-01  -1.7448945780635228e-01 -1.1010322659989241e-01 -2.2474896321286317e-01  -9.7375732717856101e-02 -2.5240870471109367e-01 -1.2674349195059847e-01  -5.6200024081585948e-02 -4.2084049601964497e-02 -2.2612392966793998e-01  8.9155382637608124e-02 2.8126427546445359e-01 -8.8482124079756350e-02  1.7413801321212316e-01 1.4919812367443064e-01 -1.0441390864784617e-01  -2.6380583900175402e-02 2.8422737497396583e-01 -7.6465504237020684e-02  1.5455521681201420e-01 2.0364612000016358e-01 -1.0708440678794896e-01  1.0724071837039026e-01 -1.7364797081923780e-01 -1.5881746903787758e-01  9.4103421910267576e-02 -1.6121469786226544e-01 -1.7310652103595775e-01  -5.1110407408699196e-02 1.4834782605879435e-01 -2.1770884771095977e-01  -1.6226582310096610e-01 4.2409032882473198e-02 -1.7031129554794419e-01  8.7851762764021846e-02 1.0410904856693383e-01 -1.9247008758997156e-01  5.3006722560965655e-02 1.5286834403353700e-01 -2.0213562358840587e-01  1.1115304662425333e-01 -1.0360385785869120e-01 -1.7697411722613721e-01  1.9506493762627219e-01 9.4665045952913945e-02 -1.0557510777802634e-01  6.8892308088242427e-02 -9.1713709188599460e-02 -1.9547725215630390e-01  2.5788478966324142e-02 -5.7556666865736385e-02 -2.0933460179724006e-01  2.6536894184104622e-02 1.1135713190308008e-01 -2.1103118597413725e-01  4.9604643865051520e-02 7.0107425824003866e-02 -2.0239117642526791e-01  -1.5618333638594401e-02 1.9175363597973277e-01 -1.9973735840696435e-01  1.0365284057754834e-01 4.2377490492558505e-02 -1.8536984224292752e-01  -5.2536763828487355e-02 5.1984887822569631e-02 -2.2396817641215128e-01  1.0932287552754250e-01 -6.0695142575988022e-02 -1.8218181835900610e-01  -1.8930481197885103e-02 1.2869652811796137e-01 -2.1838052626335883e-01  -1.4199235933669169e-01 6.7844785611046177e-02 -1.8681151086801470e-01  -3.0927572466902777e-02 -9.5270498558410036e-02 -2.2018267310316084e-01  1.6466664010797272e-01 5.0848483170441244e-02 -1.5479620926588281e-01  -1.0945493972941299e-01 3.1402001040790932e-02 -7.1063348251633240e-02  -1.3146207064181695e-01 3.2644331258883476e-02 -4.9780500576278128e-02  -1.1050381688832364e-01 5.1054997109855546e-02 -6.8025679953115509e-02  -1.1840574772115965e-01 1.1725843814985648e-02 -6.4923874384994834e-02  -1.0360880710275380e-01 1.1596062248604633e-01 -6.6043390393777407e-02  -1.0964760227151389e-01 7.9208197198155264e-02 -6.6338911607568149e-02  -1.2325620902898649e-01 1.1413020806705240e-01 -4.3593125647799401e-02  1.0860149209896792e-01 5.7513583183619127e-02 -1.109