<?xml version="1.0"?>
<VTKFile type="UnstructuredGrid"  version="0.1"  >
<UnstructuredGrid>
<Piece  NumberOfPoints="612" NumberOfCells="1848">
<Points>
<DataArray  type="Float64"  NumberOfComponents="3"  format="ascii">0.3383303470551209 2.408958321733131 -1.764059499748992e-15  -1.163946517744931 -2.852229829950373 2.400306502079257e-18  -0.3393505342858804 2.37072300602915 -1.764472701528684e-15  -0.9669293219278281 2.088503719598907 -1.766709678442708e-15  -1.465234222778476 1.616033941524572 -1.318935505756128e-15  -1.798023894670831 1.01361887524703 -1.311332610697369e-15  -1.926851675641243 0.3360787991635045 -8.814915922935272e-16  -1.904609219098958 -0.3461191564625937 -8.845004180416638e-16  -1.655744116138917 -0.9673027368503246 -4.405206906664616e-16  -1.217260965512492 -1.473770373041869 -4.457593628162187e-16  -0.6395124446113293 -1.813103358931238 1.595284243918697e-18  0.02324488970719107 -1.924519506795306 4.239808684563535e-18  0.6843413068999137 -1.809567772494288 -3.243407305428928e-18  1.270498702557354 -1.479679866688354 -4.414477227228818e-16  1.692387034724894 -0.9501202003095833 -4.476609490503655e-16  1.916334191374614 -0.3149396006142917 -8.766435558722002e-16  1.948643802664817 0.3608396267738349 -8.812799826057697e-16  1.793940541327701 1.017650488204722 -1.328846214512022e-15  1.434009916758579 1.596892588536507 -1.334973470827805e-15  0.9384984863863874 2.076156335083723 -1.781343066154519e-15  -0.4430391649586797 -3.070199218204822 3.849577003939228e-18  0.3101227897837048 -3.078722948429862 -7.3424582725644e-18  1.038443229126294 -2.89746725109122 3.56364752172281e-17  1.701733477068817 -2.550068075168519 1.780898694170568e-17  2.271592507178319 -2.064368113517902 1.280724889833915e-17  2.728208995174681 -1.471079787493603 -4.285168100744296e-16  3.057366207462112 -0.7958105073104648 -4.338000623954386e-16  3.213476113490488 -0.05385505533695555 -8.83192093574141e-16  3.144471396755535 0.7020365569066274 -8.823746953153586e-16  2.872152962396102 1.408307506152471 -1.33420669939115e-15  2.434612386819364 2.020042350527954 -1.306868543764281e-15  1.875825460322552 2.520919703220069 -1.797663515663596e-15  1.241956814561401 2.9084490498113 -1.768729133204311e-15  0.5480336653042293 3.203894756658104 -1.776621340417394e-15  -0.2007273513552542 3.307524556662945 -1.762883956026581e-15  -0.9461029520983524 3.168097576323786 -1.766553669016265e-15  -1.617316168179284 2.818982507104055 -1.773221177644469e-15  -2.16744724649053 2.304165785502249 -1.752544493975338e-15  -2.569431940533923 1.669571482167799 -1.330375185529783e-15  -2.814864030242962 0.962374212379548 -1.327976959610144e-15  -2.924404507263538 0.2246903647429921 -8.785769526973856e-16  -2.868469528956246 -0.5192409198269355 -8.633373179060514e-16  -2.651574312615175 -1.233974702390128 -4.303549073268089e-16  -2.287610669146305 -1.88336757572207 -4.303643071495541e-16  -1.787857169720874 -2.436932635441293 6.556976204335745e-17  1.207520940449014 1.872252191118151 -0.8513119807459314  0.7863781199948234 1.916851264923012 -1.581954874652391  0.6420438358891631 2.216669325741381 -0.7283430772325066  1.774540320361112 -0.9082311874237119 -3.204800283663918  1.579296870037949 -1.39090434229011 -2.878260161781954  1.483018254847223 -1.334841778309442 -3.459799414392081  1.902820989933353 1.115337980979456 -1.284210588681918  2.168820495966998 0.521941326791647 -0.8809565635761472  2.104830321787901 0.5672147993892271 -1.63629839438033  1.830752886898722 -1.080366892902778 -2.386372160727448  -0.8486341810487231 -1.942208221888539 -3.147791772276663  -1.090237460026632 -1.678734272467714 -3.673812959476138  -0.4858788458725479 -1.970685034490512 -3.692938107475139  1.118392499892425 -1.598105626044288 -3.831150389144089  0.7582161397441542 -1.956944492101019 -3.449253305948207  0.6352564940441144 -1.778456443706506 -4.137374449849339  1.160357748680535 -1.790835184199971 -3.070459874266155  2.229456370479007 0.09105576650148399 -1.252343050880901  2.158496596601794 -0.06808843624749744 -0.6516432178805455  2.147433924716966 -0.4520713259449848 -1.213885889983325  1.69036988474415 1.445198106807807 -0.7484361116084676  -1.721627638021772 1.098148454338874 -4.624298631325206  -1.995558972806805 0.8670352434900217 -3.967872863048487  -1.79952406542643 1.372831762502745 -3.807794691046034  -0.9616318601794404 -1.959346781609828 -2.44185362866348  -0.3375390134562888 -2.174289357552312 -2.016954431100524  -0.8520766802342015 -2.024009733177677 -1.50692997588464  -2.031858472729791 0.9518687392838883 -3.260386387071157  1.940490620671779 0.3557422060141358 -5.684492361225891  1.940243166924643 0.8004427624894218 -5.25117295957906  1.891350404580725 0.1896631212427697 -4.993559444823386  1.662158247175296 -0.4813006053358805 -4.62322049577063  1.40858520691575 -1.116853970814357 -4.186725320276963  1.358884312648541 -0.8682565730341651 -4.918444283379666  -1.904052768318396 -0.6830592497562094 -0.3614096302547982  -2.08491292874569 -0.2271974723758975 -0.6960334644375193  -1.693465055449488 1.220597483528981 -0.8070866418081756  -1.268658969190027 1.754099266815334 -0.7075103442620329  -1.408866277525673 1.460688778878463 -1.330503644084296  -0.0527651027454436 -2.137334031910306 -1.327734496873278  -0.6126405699707194 -2.01906772917656 -0.830959429159168  -1.152933396679766 -1.756216792252045 -0.6893405264456089  -0.7826614544906344 2.067492522087997 -0.8123551860376627  -1.067754496807116 1.72272988212091 -1.359532278604404  1.703516045756 -0.6929617563396612 -3.883094637912678  -1.244109601969244 -0.7942054297062038 -4.749675583693904  -0.7701467040547034 -1.467308762870555 -4.440599978303919  -1.429132448755698 -1.202895493693823 -4.004889849310957  0.6054403424959425 1.759164027047814 -3.430158795868445  0.7020719203259375 1.724769424523233 -2.483651750589694  1.120342034810657 1.477431602809749 -2.921883332394797  1.949097471140596 0.9133929697604957 -6.093951386476436  1.232485189872279 1.515722035549441 -2.17453446798351  1.910948302371079 -0.9736159444160652 -1.119454109875927  1.584154394302874 -1.34757196944573 -0.7500746518004642  1.70625937905181 -1.316928655331651 -1.622975515425497  1.970601230638033 0.5117139144208587 -2.490386868224692  1.724285371913611 1.080746228908167 -2.135649881353039  -1.07670403767778 1.609566247316152 -5.522564357689691  -0.7142322196760755 1.68158960019464 -5.99132850936628  -1.013316019619064 1.217812808475154 -6.037643638112307  1.70089520408363 0.9275478872284562 -3.093109060960753  0.1389103779300855 2.126544311485613 -1.341708333543655  1.294013932353098 1.438809836926141 -3.640482201879014  -1.667633995535039 -1.226554732185098 -0.5361053166997499  -1.546401680648704 -1.592596540962491 -1.241858153226256  -1.937608358409279 -0.9736766172968594 -0.9831357346647833  -1.844044518297406 -1.276389206468905 -1.728244138127512  0.186479733083858 1.881749490473776 -2.14534605955988  0.7358096918184618 -1.984270565056096 -1.241263694630025  1.080972003777269 -1.734831983478443 -0.5859026872830542  0.4439976885318407 -2.000660041744844 -0.704066441393121  1.452346377718378 1.542512461245055 -1.47787150007667  -0.4316989072750719 1.448275847406202 -6.568242601900702  2.016989545156187 -0.7687204308512819 -1.749920902512126  -1.464025937326853 -0.02896017718158522 -5.111075027160823  -1.629268817112019 0.656729841322922 -5.021481469805056  -1.25134053323154 0.5589927582413936 -5.748223729361177  1.269226509955798 -1.705374900689471 -1.394631674308547  -0.5332614705489878 1.88104030225075 -1.709603735760982  1.876133646415761 -0.2414839474585276 -3.578695765303376  1.96143576876606 -0.4641344366914703 -2.898336948278603  2.049200221193007 -0.07302361274916939 -2.63816242186988  2.036937803089162 -0.5074557088969078 -2.345721594166022  -1.984903520193937 0.5436991679717743 -0.7094145071716046  -2.143731665896768 -0.6060569232266737 -1.493965480591678  -1.695148700997303 1.110544312699326 -1.657923820412514  -1.932319644892426 0.7520117821878747 -1.310029914134583  0.8717829711639251 -2.032039269852001 -2.012290823029593  0.468233817549749 -1.447340281422334 -4.859387032115996  -0.04303299970769518 -1.803743333036953 -4.272216134322674  0.1935407492787698 -2.067024546421582 -3.587207229793104  1.426462543672226 -1.654206237532266 -2.317872210407774  -1.366586959819773 -1.748142624307361 -1.835134772480358  2.142117569515199 -0.08878963829555692 -1.939072970061104  1.325858958525701 1.642447701147071 -4.880636908010401  0.9564996505468127 1.773734329419826 -4.164608292900243  1.544507175784867 1.367881055260595 -4.292069470408893  -1.615444198725608 -1.482439776820726 -2.530126431006172  -0.1647196379684598 -2.034929886466951 -0.5768059864602463  -1.893642019639724 1.036524660862551 -2.5161903398912  -1.298683084584608 1.512865269746686 -2.117829863819439  -2.037747255099368 0.6014610585825882 -1.991011739298487  -2.024821117336022 -0.900827317511806 -2.24194240948174  -1.398036458513764 1.119332920447601 -5.407020001884782  1.958047721537518 0.2115055733157684 -3.149055608436069  1.037715137380666 -1.318321675933598 -4.61963054329207  -1.951554819951153 -0.8941812737805014 -2.965327608077185  -2.151392343160727 -0.4883213751040319 -2.562978832212764  -0.2034890908979619 1.911186535344781 -2.912516824477292  -0.7673170782472998 1.932398174431699 -3.157604253709719  -0.4364454160918689 1.857691684623288 -2.520352795307333  -2.153900754246711 -0.2105414472714308 -3.021898538357599  -2.205143055525331 0.02468575690864774 -2.323871607140952  -2.171087411103987 0.4176910629911491 -2.852884167489047  -0.2008788026529247 2.022152960343567 -3.655376827808649  -2.142359366287687 0.1415872614996476 -1.42738463185668  -2.182610631221824 -0.3874348561208716 -2.024087111882133  -1.810264300139309 -0.8549151670172193 -3.670086242715312  -1.619565812520084 -1.291857357366912 -3.321104656577459  1.942637202705908 -0.7873030078430601 -0.5399413766974613  -0.2966891186871257 2.211570335033069 -0.9186443724265613  -0.8689
[...]
<PointData  Vectors="f_4842137-0"> 
<DataArray  type="Float64"  Name="f_4842137-0"  NumberOfComponents="3" format="ascii">9.6602661607725515e-02 3.1080039038010809e-01 0.0000000000000000e+00  -1.0003437619687351e-01 -2.2435829070798188e-01 0.0000000000000000e+00  -2.8210723021288950e-02 3.2814130053939045e-01 0.0000000000000000e+00  -1.4404537774603848e-01 3.1431405380790645e-01 0.0000000000000000e+00  -2.5369750788454831e-01 2.6793394811267857e-01 0.0000000000000000e+00  -3.4068462852432546e-01 1.8829575273731181e-01 0.0000000000000000e+00  -3.9199019487270254e-01 8.3508473556372295e-02 0.0000000000000000e+00  -3.9710362600323557e-01 -3.7916922251164921e-02 0.0000000000000000e+00  -3.6125222656992173e-01 -1.6702762980428812e-01 0.0000000000000000e+00  -2.8936158613160262e-01 -2.8008122500129717e-01 0.0000000000000000e+00  -1.8340075402722089e-01 -3.6487849043314946e-01 0.0000000000000000e+00  -5.7053160030064325e-02 -4.0876319110844944e-01 0.0000000000000000e+00  7.3650218023402908e-02 -4.0713107180375641e-01 0.0000000000000000e+00  1.9344092476506708e-01 -3.5723030983089282e-01 0.0000000000000000e+00  2.8996231382242682e-01 -2.7229337549030164e-01 0.0000000000000000e+00  3.5000686844721229e-01 -1.5538331090597091e-01 0.0000000000000000e+00  3.7086952553972752e-01 -2.6455008178274394e-02 0.0000000000000000e+00  3.5283260947375383e-01 1.0106333738424411e-01 0.0000000000000000e+00  3.0071912611564233e-01 2.0936376125912465e-01 0.0000000000000000e+00  2.1469393116795205e-01 2.8125051521646627e-01 0.0000000000000000e+00  -5.2043087016690519e-02 -2.3952327125283585e-01 0.0000000000000000e+00  6.0656736467606541e-04 -2.4720413365694890e-01 0.0000000000000000e+00  5.4706235482367055e-02 -2.4249257087785722e-01 0.0000000000000000e+00  1.0793039010256449e-01 -2.2207262626106042e-01 0.0000000000000000e+00  1.5376368196907933e-01 -1.8802731319948424e-01 0.0000000000000000e+00  1.8670525380263697e-01 -1.3970971048868830e-01 0.0000000000000000e+00  2.0220703540586121e-01 -8.3420514608114671e-02 0.0000000000000000e+00  2.0441004252555356e-01 -3.8357255776209465e-02 0.0000000000000000e+00  2.0538554949489324e-01 5.7139837977729030e-03 0.0000000000000000e+00  2.0206371480408269e-01 5.5971878209161434e-02 0.0000000000000000e+00  1.8668054400883319e-01 1.1450062927052103e-01 0.0000000000000000e+00  1.5299253021882248e-01 1.6547788508954275e-01 0.0000000000000000e+00  9.3328707956753715e-02 2.0156227492786521e-01 0.0000000000000000e+00  3.2651845341217359e-02 2.0503584029212349e-01 0.0000000000000000e+00  -2.2592967782862849e-02 1.9936542277880007e-01 0.0000000000000000e+00  -6.9157983400879183e-02 1.9007544230813797e-01 0.0000000000000000e+00  -1.1676268223448555e-01 1.7541982539896658e-01 0.0000000000000000e+00  -1.6697256808036021e-01 1.5100251038212839e-01 0.0000000000000000e+00  -2.1227806838454188e-01 1.1419274138417315e-01 0.0000000000000000e+00  -2.4750046530532469e-01 6.2927442178907639e-02 0.0000000000000000e+00  -2.6272097915151904e-01 9.7869809895882189e-04 0.0000000000000000e+00  -2.5713274172804229e-01 -6.1705142415556351e-02 0.0000000000000000e+00  -2.3395286583513603e-01 -1.1668738132546466e-01 0.0000000000000000e+00  -1.9377422185930621e-01 -1.6292703957035640e-01 0.0000000000000000e+00  -1.4845368533820849e-01 -2.0044544352868796e-01 0.0000000000000000e+00  2.1941826146747803e-01 2.7775907630993185e-01 -4.6728857890755135e-02  1.3761959035383958e-01 3.2451283650530316e-01 -8.6014217419230973e-02  1.2284097258562117e-01 3.1694615847997731e-01 -4.3461202637124836e-02  2.9795354348549957e-01 -1.4525455607018165e-01 -1.6796977753756637e-01  2.5376026103867266e-01 -2.2030607805985433e-01 -1.5205183194340610e-01  2.4505109679842330e-01 -2.0268961589783807e-01 -1.8838618550442843e-01  3.0651614847679520e-01 1.5438973908582607e-01 -6.1203972872676822e-02  3.4251977325511446e-01 3.3428043748109877e-02 -3.1988231565831374e-02  3.2922410416508058e-01 6.8818720507931516e-02 -7.9800356086986393e-02  2.9457605117483654e-01 -1.8822251441520893e-01 -1.1970725504174035e-01  -1.4167255540352058e-01 -3.1912377025060712e-01 -1.8266132029124790e-01  -1.7666579448572514e-01 -2.8745180989022578e-01 -2.2784300558069276e-01  -7.9506736607072900e-02 -3.1035601284139624e-01 -2.2318657675944253e-01  1.8119858027225227e-01 -2.3702487716774559e-01 -2.1584113788226364e-01  1.1496489353923468e-01 -2.8527231994384888e-01 -1.9420548039836769e-01  9.9181444710006755e-02 -2.6104115425341884e-01 -2.4116868377716735e-01  1.8095055355942483e-01 -2.7028127087769183e-01 -1.6720169046969302e-01  3.4214114336705009e-01 -3.0588135670912325e-02 -5.3073477439329032e-02  3.5184572606731757e-01 -7.5767927791789758e-02 -1.5989412831717207e-02  3.3425100522114665e-01 -1.2498539400548316e-01 -4.9239773927448972e-02  2.9355800059460863e-01 1.9861903212629015e-01 -3.1477419889310181e-02  -2.5038710877780607e-01 7.7560103643409845e-02 -2.3731525393482655e-01  -2.8091330909429474e-01 5.9226062845418627e-02 -2.0457018424569282e-01  -2.3682916748789273e-01 1.4975977478668201e-01 -1.7534274925438170e-01  -1.6618712905198341e-01 -3.2940904657556330e-01 -1.3018780897585613e-01  -7.2950115784157527e-02 -3.6510298054438034e-01 -9.5473992545309389e-02  -1.5592234581635647e-01 -3.4991409817737029e-01 -6.3765669028167715e-02  -2.8751925959201469e-01 1.0339015781561520e-01 -1.5117450460050741e-01  2.2611022267332317e-01 1.3880899840087084e-02 -2.2380586959961377e-01  2.4104335426707080e-01 9.2113845201246006e-02 -1.9167774061472917e-01  2.6559532386212709e-01 -3.9083319850295312e-03 -2.0099606578940285e-01  2.6697770478034405e-01 -9.9152091156937669e-02 -2.1696451712844889e-01  2.3443339399494048e-01 -1.7795855273055655e-01 -2.2415837866024774e-01  2.0755844889947658e-01 -1.5518080231957618e-01 -2.5160806030769239e-01  -3.7792069480653101e-01 -1.1644518775064036e-01 3.4819858527409815e-04  -3.8264696886555027e-01 -2.8705819851785528e-02 -1.6267400223333586e-02  -3.0953297493190723e-01 2.0741822782047228e-01 -3.5890617199115397e-02  -2.2667025081834039e-01 2.7789486879483205e-01 -3.9168966777926965e-02  -2.5144970698632357e-01 2.5691927885996679e-01 -6.0344127928026688e-02  -3.0520230661897525e-02 -3.8877863575662425e-01 -4.7728924636316152e-02  -1.3352914103109254e-01 -3.7227344218946601e-01 -2.2714015951175850e-02  -2.3079064864726265e-01 -3.1955725996457640e-01 -1.4400311328718064e-02  -1.3666509507654559e-01 3.1836301514282161e-01 -5.0046153836652112e-02  -1.8959550969492070e-01 2.9857933322662489e-01 -6.7839116056675544e-02  2.9145929209077159e-01 -1.1520908172251747e-01 -1.9570548935099660e-01  -2.2561939596507452e-01 -2.1329184454314770e-01 -3.1007673702670552e-01  -1.3311303967848306e-01 -2.7467449964605617e-01 -2.8609256027973490e-01  -2.3519291429671194e-01 -2.4011875237669081e-01 -2.5692636578254130e-01  1.2590821270578534e-01 3.4541271192644468e-01 -1.1498999860415715e-01  1.3402182169012014e-01 3.3560672482956966e-01 -1.0439024981643434e-01  2.0405598584160095e-01 2.9012364359687320e-01 -1.1302604148609935e-01  1.9511766069621214e-01 9.4763928137126474e-02 -2.2845561248097609e-01  2.1439775295393229e-01 2.8012783539077735e-01 -1.0295507037236949e-01  3.0205887526953973e-01 -2.1824157483282913e-01 -4.1063524831673075e-02  2.5434980798681528e-01 -2.9798919917416467e-01 -1.9475695438645683e-02  2.6748910815375337e-01 -2.5432588199402278e-01 -6.9910515819145799e-02  3.1881694017398710e-01 8.4811032245958415e-02 -1.1793805788228719e-01  2.8455420186029096e-01 1.8665543775265475e-01 -1.0292539045484236e-01  -1.6988004304149765e-01 1.4011273396501847e-01 -2.5852331312790994e-01  -1.3473820933863689e-01 1.4977644662385334e-01 -2.7425875900443270e-01  -1.7864060675611540e-01 6.1914023409459951e-02 -3.0267076748643984e-01  2.8075779953916308e-01 1.6999240605236118e-01 -1.2640911046430325e-01  2.4312038007806066e-02 3.4192378482789676e-01 -7.6600876679921215e-02  2.1860441380435064e-01 2.6303895281499634e-01 -1.2452373416139413e-01  -3.2546087838129428e-01 -2.1833572915868552e-01 -6.6039658931690212e-03  -2.6643120417808130e-01 -2.6851122801004529e-01 -4.5364413732875426e-02  -3.4101498347879738e-01 -1.6381500742215030e-01 -2.9390844180997647e-02  -3.0170885058120278e-01 -2.1227140361148861e-01 -8.0911766914180658e-02  3.9709456422922507e-02 3.5500534227028230e-01 -9.4889116345543034e-02  1.0288705803232602e-01 -3.7496324018995975e-01 -4.2739857515694972e-02  1.6341310489601160e-01 -3.6779126359035180e-01 -1.2302310232936228e-02  4.8853199955177500e-02 -4.0070861559223125e-01 -1.7267690645401377e-02  2.4721593089998406e-01 2.5051135360961480e-01 -7.8017395161015857e-02  -1.2253509979433201e-01 1.0207288822411380e-01 -3.0528592398839405e-01  3.1816023917968750e-01 -1.5961798537050015e-01 -8.1886102649364939e-02  -2.5844536939447804e-01 -1.1669682738542349e-01 -3.1380149399802271e-01  -2.6281938384408915e-01 -7.8686659552476453e-03 -2.8114191673680772e-01  -2.2179051202035793e-01 -4.0165613452999731e-02 -3.2307732297717945e-01  1.9664376313614140e-01 -3.2808551136156466e-01 -5.2843491134423069e-02  -9.2209767894532488e-02 3.3790653947164423e-01 -8.2139363555822284e-02  3.1854527142781058e-01 -4.4649988840317817e-02 -1.7066535564797494e-01  3.2442987480087454e-01 -8.0083690574743113e-02 -1.4625096888687383e-01  3.2994742826222018e-01 -1.5976033806645893e-02 -1.2914565736519446e-01  3.2825518496638401e-01 -9.7313929631513876e-02 -1.1752301907582610e-01  -3.7092971015128384e-01 1.0114454880220901e-01 -2.2010636679758954e-02  -3.4947636314839470e-01 -9.6127132661985706e-02 -6.2149661470671393e-02  -2.9480798955187043e-01 2.0319117750188312e-01 -6.6026815686485940e-02  -3.4177868221281454e-01 1.3745255185558689e-01 -5.0468384556845956e-02  1.2266314379615727e-01 -3.3997506470011862e-01 -9.1863314657956857e-02  7.0067737212629558e-02 -2.4304262439449720e-01 -2.8599988442203716e-01  -9.9408909425715789e-03 -2.8584774581920069e-01 -2.6170390902745078e-01  2.5597175970787683e-02 -3.0618423172805059e-01 -2.0868074117374211e-01  2.1914066007080885e-01 -2.7373309076618851e-01 -1.1443764155343572e-01  -2.3113699020643041e-01 -2.9591277201230320e-01 -8.7849191438310048e-02  3.3735827551238928e-01 -3.8128978931791582e-02 -9.3658716547328866e-02  1.8334490668639233e-01 2.6426375207766056e-01 -1.6526566147324045e-01  1.5758133584926576e-01 3.1289317534130634e-01 -1.3584051720328977e-01  2.2933858580425628e-01 2.1806143995408506e-01 -1.4674870365347600e-01  -2.6170988518733374e-01 -2.5613880371733161e-01 -1.4012589825466459e-01  -6.3470423660393169e-02 -4.0058228109915017e-01 -9.1021991886800126e-03  -2.8796384457256641e-01 1.6016278233998546e-01 -1.0084529393357718e-01  -2.1174401354404726e-01 2.7180332022118375e-01 -7.9716027926956076e-02  -3.3447870399814206e-01 1.0589382863129726e-01 -8.0906786773413730e-02  -3.2464520198292057e-01 -1.5873669598575824e-01 -1.1646425090729738e-01  -2.2129160162959172e-01 5.8447183262718416e-02 -2.7942777367239136e-01  3.1926264251680403e-01 3.5697941143575662e-02 -1.4405256997899360e-01  1.6243998108516597e-01 -2.0963933894531964e-01 -2.5689836996011883e-01  -3.1132822483700728e-01 -1.7475695196426425e-01 -1.7008450347037879e-01  -3.3803028921124884e-01 -9.8645595909498285e-02 -1.3480263288914704e-01  -7.5573543439302624e-03 3.5584520877886161e-01 -1.0193550253694422e-01  -9.0977335616401103e-02 3.2109407367813081e-01 -1.1195490914526141e-01  -5.6395569132196323e-02 3.4824763040504175e-01 -9.2572489176521458e-02  -3.3683208994265462e-01 -6.9638558868794623e-02 -1.6407752224830272e-01  -3.4656051761747564e-01 -4.8837870342908025e-03 -1.1039168578262486e-01  -3.2833367043045281e-01 3.9354816981804645e-02 -1.3642541512975789e-01  9.4484247556015155e-05 3.4736865294375585e-01 -1.2657732134071689e-01  -3.6402265937979073e-01 3.2788681044892430e-02 -5.4693087399669861e-02  -3.4859031420967307e-01 -6.6160226475085571e-02 -9.5627872491501911e-02  -2.9265403348904906e-01 -1.8592751060855620e-01 -2.2645392153250118e-01  -2.6278422649874511e-01 -2.3936035436758724e-01 -2.0059832489550583e-01  3.1795059966507044e-01 -2.0754799911099975e-01 -7.9324493030337902e-03  -5.1101088425214033e-02 3.3631322011409587e-01 -5.7380567987282138e-02  -1.2686828500156633e-01 3.1929997462418996e-01 -8.9906523427772098e-02  2.7417788951988008e-02 3.2777144752929643e-01 -3.7652842829645219e-02  2.9823459107372208e-01 6.9740383493144070e-02 -1.5298653597557935e-01  2.6822027671559140e-01 1.6035646858093378e-01 -1.4065627514876114e-01  -9.8149334986541464e-02 2.9493800842404289e-01 -1.5932959615875919e-01  -5.4824287269065339e-02 -3.4258911340992959e-01 -1.5229674491156883e-01  1.3973603070702875e-02 -3.6290875324844774e-01 -1.0121669049957961e-01  -1.7532803706857275e-01 2.3971891983475788e-01 -1.4509290034420769e-01  -3.2078682184175566e-01 -2.6990607626289641e-02 -2.0155989309515640e-01  -1.5838024440255066e-01 -2.1951751714224865e-02 -3.3889361368574050e-01  6.1993939359464949e-02 3.5061315822381772e-01 -1.4319835695701022e-01  1.0316177352459764e-01 3.2420575411019342e-01 -1.6996639217700849e-01  1.5358224106824109e-01 -3.0692241840843659e-01 -1.2889046566709422e-01  2.7177689185464088e-01 9.4597786020179445e-02 -1.6692685144294198e-01  5.7350498052244757e-02 -3.7464406113642906e-01 -6.7140941749197269e-02  -3.0950638048166196e-01 -1.1807935655014092e-01 -2.4958285060941607e-01  -3.1993994974657947e-01 -1.1860276349795941e-01 -2.0795400075442960e-01  2.9948848510727061e-01 -2.0308763777022731e-02 -1.8413506315091319e-01  -2.3338749915410098e-01 2.0241979407803576e-01 -1.2038108376237840e-01  2.1868216627727016e-01 -9.0755455667173121e-02 -2.4470425727977499e-01  -1.7064880728630527e-01 2.7535533157406317e-01 -1.0503424240591100e-01  6.2067536451559449e-02 -3.2527237075926074e-01 -1.5207951360905839e-01  1.2588789933892350e-01 2.2010329579572116e-01 -2.3004121771919259e-01  1.9664291706357787e-01 1.9133393216105271e-01 -1.9520381099868750e-01  1.7129647555405639e-01 1.5880667334447771e-01 -2.2491520030971543e-01  2.3674030330482052e-01 1.6874550289201862e-01 -1.6956945816535904e-01  3.4038863628275917e-01 9.8851142373696396e-02 -1.7299806510009015e-02  -2.9685353506305556e-01 -3.4528944577183564e-02 -2.5576257421121873e-01  2.5206288548812433e-01 2.4029184368262987e-01 -1.1211704949140693e-01  -1.8522873366562509e-01 1.9434810126753033e-01 -1.9019731398186238e-01  -2.0996166867981361e-01 -2.9122391909425388e-01 -1.7558806021110474e-01  -2.3416696532837379e-02 2.6662489432540337e-01 -2.3633217598804360e-01  1.4109446749612070e-02 3.1704712401053553e-01 -1.9010561536993811e-01  5.5799247648139032e-02 3.0356695991749155e-01 -2.0645247470807937e-01  -5.3882534727557170e-02 2.6970152350221908e-02 -3.3002908890489957e-01  -1.1055868749172769e-01 2.1491655092040388e-02 -3.3408396239043026e-01  -6.8586455841458116e-02 9.8760254481578338e-02 -3.0654430892749102e-01  -1.9708590959625588e-01 1.4336734558866460e-01 -2.3402532589756492e-01  -1.2739313532687982e-01 2.3281759443854563e-01 -2.1135341861464868e-01  -3.6390116197217791e-02 -2.5964296024595424e-01 -3.1043752037065675e-01  3.2352808238020579e-02 -2.2539029643718461e-01 -3.1664861219282719e-01  -7.0712315363639797e-02 -2.2513196000489102e-01 -3.4244006754124501e-01  -1.3029428194596915e-01 -2.4660647158655108e-01 -3.2457362141004281e-01  -8.5458071422829351e-02 1.9712185760262693e-01 -2.6901942073084023e-01  -1.0176837762946572e-01 2.2137519488216362e-01 -2.4137794043316887e-01  8.8610752663646861e-02 5.5924968727226236e-02 -2.8522669236836412e-01  1.4544152683155084e-01 5.7200708826308920e-02 -2.6534698428792652e-01  1.3438489526228747e-01 -2.8499405270305846e-02 -2.9492765306453422e-01  1.8230072883649556e-01 -5.1296930629306549e-03 -2.5818479042891374e-01  1.3249915123781542e-01 -1.7899427922691533e-01 -2.9146038565035626e-01  1.5690702466711673e-01 -1.0410481995884330e-01 -2.8552082400237455e-01  1.0361260915228736e-01 -1.5351727755780048e-01 -3.1128272033922605e-01  8.2609154060828929e-02 -1.1490049865630148e-01 -3.2694638780269020e-01  -3.5505917662322105e-02 3.1870678825524451e-01 -1.7031458061511986e-01  -2.7812055302364463e-01 -1.7911744867396656e-01 -2.7010804020118290e-01  6.2564751494976020e-02 3.6035270627834021e-01 -1.0624538303652170e-01  -1.8752462843381729e-01 -1.9808794776020530e-01 -3.3776257091142764e-01  -2.8512437265011081e-01 -1.3823631036867595e-01 -2.8640350149381749e-01  -2.1295002562646820e-01 -1.2923745045360646e-01 -3.4083338613634723e-01  -1.4342871379545413e-01 -1.7667321250903900e-01 -3.5449980750488946e-01  -1.6045037194734774e-01 -1.1326121338205129e-01 -3.5503839763657952e-01  -1.0946843368189189e-01 -8.4476406622289960e-02 -3.5841973383921111e-01  -3.1418490923898243e-02 -4.4925605185961566e-02 -3.4428321683370977e-01  -5.5771489336010283e-02 2.8134750693245036e-01 -2.0913501672557155e-01  2.4678195255626215e-02 -1.8616999714304830e-01 -3.3735223370186085e-01  1.9649369874466288e-01 -5.6336126900972720e-02 -2.5621579213935525e-01  -3.7973455685610259e-02 2.0003495159134208e-01 -2.7085997725574001e-01  5.9376936378606505e-02 2.6354896602158973e-01 -2.3420114707825912e-01  -7.5100807695870048e-02 -1.6608808285490298e-01 -3.5904486009448089e-01  5.8820190108737763e-02 -5.2085329225204507e-02 -3.3259242048495663e-01  -4.2385935244661846e-03 -1.1691999094594874e-01 -3.5140701841592281e-01  1.2387903408837023e-01 1.3634733438555882e-01 -2.6053629208150719e-01  4.6486483130156596e-02 1.9004849519761435e-01 -2.6651119937793061e-01  1.2723620144619233e-01 2.7735495716004377e-01 -1.9915579504722081e-01  -7.4424780324314488e-03 9.5881820691882863e-02 -2.8878542260124163e-01  1.5743348488762562e-02 1.7253952378745555e-02 -3.1409502233350378e-01  -2.2443990544070303e-02 1.4746283538361746e-01 -2.8235355155601288e-01  5.7181857454210769e-02 1.1966093075881604e-01 -2.7994710154579716e-01  1.2658903278720826e-01 1.2538374849823800e-01 -1.2406555384869984e-01  1.4392174200788393e-01 9.3434988310020520e-02 -1.1693098075374130e-01  1.3234583083153165e-01 1.1150864003997328e-01 -1.5015738224530106e-01  -1.6046111635625207e-01 1.1121876640131755e-01 -8.1120852476937136e-02  -1.9704770399098231e-01 9.6393935600878736e-02 -5.6858978787980220e-02  -1.7217912400865404e-01 1.3300511615405361e-01 -4.2330996539073365e-02  1.5082951737646655e-01 -1.6965234710467811e-01 -4.6308813306582819e-02  1.1329929308136157e-01 -2.0330972265505040e-01 -5.3908516206452012e-02  -2.1842004211944543e-01 -7.9111852509830660e-02 -5.9421508017129095e-02  -2.0539798729118799e-01 -1.1951625410358956e-01 -4.3947406784660616e-02  1.4427670640404303e-01 7.7905452797390071e-02 -1.3293511740129813e-01  1.9545391884917698e-01 -5.3147640460752842e-02 -3.4485736883007580e-02  1.9570824499873557e-01 -2.8246433512300675e-02 -3.4777805838439493e-02  -6.5467290078210037e-03 -1.9613566690752534e-02 -2.9901872847412397e-01  -1.7008390044669489e-02 4.9676103558086993e-03 -2.9080298408843225e-01  2.0670337501928083e-02 1.3149733866817248e-02 -2.8093993074665413e-01  8.9478673572839049e-02 1.8210786614021379e-01 -3.2070488486019920e-02  1.2027132399617448e-01 1.5950753190275357e-01 -4.7451281997228686e-02  1.5247949923608387e-01 1.3015957468492301e-01 -5.1521003615274466e-02  -1.7296813767969094e-01 -9.9330985324754026e-02 -1.2090923095953893e-01  -1.8601577849697340e-01 -6.3524097634899482e-02 -1.1176354768242718e-01  -1.8187590296231188e-01 -6.8436674436345574e-02 -1.3566944900707958e-01  -1.8575454073422462e-01 -4.0249096777470239e-02 -1.1883753572033923e-01  4.8449788498622012e-03 2.7698180280041819e-02 -2.7672205473859346e-01  -4.6853714000215610e-02 1.6900945048258337e-01 -8.2426612349626477e-02  -6.1270964573817706e-02 1.7187659738456065e-01 -6.1588613440571746e-02  -1.0863688628397372e-02 1.8253999281780550e-01 -5.3483269623558788e-02  -1.8155546371540957e-01 -7.6114018730924105e-02 -1.6945154955976113e-01  -1.8196118993244551e-01 -2.9484855965258575e-02 -1.5891777790627773e-01  -1.6796021714062123e-01 -1.1127665772963662e-01 -1.5285351459307686e-01  -4.9021094649568303e-02 1.8360317888888625e-01 -4.0268059410828332e-02  -8.0918048112292792e-02 1.7759065516668499e-0