<?xml version="1.0"?>
<VTKFile type="UnstructuredGrid"  version="0.1"  >
<UnstructuredGrid>
<Piece  NumberOfPoints="619" NumberOfCells="1846">
<Points>
<DataArray  type="Float64"  NumberOfComponents="3"  format="ascii">1.9119864950357 0.105556068038355 -2.246990963250331e-05  2.17968531228331 -1.58778982393287 -2.24699096324949e-05  1.778712416512087 0.8037235213986402 -2.246990963294947e-05  1.383400196917796 1.397211642309952 -2.246990963294691e-05  0.7967048792672519 1.8176039199014 -2.246990963295066e-05  0.1033969015256187 2.022889251073686 -2.246990963339399e-05  -0.6025277091464345 1.923263604680233 -2.246990963294885e-05  -1.169022924690128 1.50030991935451 -2.246990963294579e-05  -1.49114977062479 0.8661487665427544 -2.246990963294215e-05  -1.542319497942763 0.1549940225430481 -2.246990963250746e-05  -1.297827482427687 -0.5080825630908312 -2.246990963250336e-05  -0.799823036401497 -1.016041348167758 -2.246990963250442e-05  -0.1476123129177385 -1.307820985478359 -2.246990963250354e-05  0.558585352343574 -1.361136730301036 -2.246990963251058e-05  1.213984244371319 -1.093594228386397 -2.246990963249698e-05  1.693450338168087 -0.5700629086728364 -2.246990963250597e-05  2.589598873699978 -0.9747619262172789 -2.246990963250446e-05  2.801530720297787 -0.2681061227580123 -2.246990963249795e-05  2.793260523055831 0.4698719882548787 -2.246990963248957e-05  2.546474964442884 1.166376842596616 -2.246990963294041e-05  2.075398490760129 1.730596389884986 -2.246990963293639e-05  1.471784022910663 2.139836063386292 -2.246990963338257e-05  0.8144731951195807 2.434329003007566 -2.246990963336995e-05  0.1202448594825407 2.638435478118276 -2.246990963336799e-05  -0.6081096349087414 2.629848508812041 -2.246990963338776e-05  -1.296252159156893 2.378129459560662 -2.246990963339187e-05  -1.866914883879194 1.914824442311721 -2.246990963292411e-05  -2.242653913199786 1.282528328777353 -2.24699096329371e-05  -2.416331958072873 0.5714248074126597 -2.246990963249142e-05  -2.375531486307882 -0.1582676289575946 -2.24699096324972e-05  -2.131773911638656 -0.8437567570294365 -2.246990963249346e-05  -1.699783438303798 -1.42779013275716 -2.246990963250024e-05  -1.160575291242249 -1.904291592911121 -2.24699096324791e-05  -0.5246555289092943 -2.250356388117767 -2.246990963205134e-05  0.1914080525206647 -2.385957451915084 -2.246990963206457e-05  0.9164853730333389 -2.312105790084517 -2.246990963204677e-05  1.596635999336165 -2.039834583027276 -2.246990963250526e-05  -0.8113742090035789 1.818787237934457 -1.383747674879708  -0.3760230383745156 2.039028547562276 -0.7036726004913422  0.01398093376620988 2.026900754632029 -1.24599776932362  1.941863970851639 0.9155272705758349 -0.8189283044865314  1.639636645523094 1.30723907659628 -0.5363339157145233  2.065828534570884 0.3329634083959455 -0.700490807020841  -1.081887617512604 1.715397118962393 -0.6967069891617149  -1.425216245304883 1.375842512727069 -1.470768104048266  1.499418335979624 1.246585196833401 -4.079785102250731  0.821194305287284 1.628956063155497 -3.688144254182343  1.411435618279584 1.144955213501122 -3.33110180742118  -1.547966638290635 1.153880704611395 -0.6584330429228757  1.08680332619254 -1.360384714154258 -0.5164920272261627  0.6959625051502003 -1.59963573447963 -0.6888482460254391  1.704464275150617 1.119711323528341 -2.081993695049389  1.670953288814318 1.353906550657808 -1.247705922501758  2.065414544183614 0.6825301352584494 -1.460070206553438  -1.117225296947789 -1.180889514027526 -0.5471436850016993  -1.555662732141875 -0.7702766877013154 -0.6592464466387374  1.911172058867713 -0.2382626709645138 -2.839144793680622  2.07664650998435 0.2111008552831458 -2.126545076857138  2.058330460672462 -0.5271616284092004 -1.941806382487479  0.7086793921533336 1.947756621610857 -1.272046826691474  0.4878522648029812 2.026736349001901 -0.6584150338177176  0.4911230398759618 1.862528602390294 -2.03446410287719  -1.722286971792235 -0.1843652402074991 -0.5070750962367466  -1.739979957841991 0.5051124345416208 -0.5335079113092039  -1.93267815138458 0.1410362616258697 -1.02516273880245  1.214329854974221 -1.570889318471443 -5.860485917247336  0.8704049778814332 -1.821743571844511 -5.238337821018963  0.5131679344431044 -1.745651223917908 -5.811460758554958  0.3185512759386441 -1.988382580711235 -4.924000808380078  1.949423546234385 -0.4258279033491049 -0.6302120026861856  1.53390231350576 1.511506965090498 -5.552376988829168  2.160254605656619 0.8191332943147088 -5.589226196437452  1.988166475623957 1.195461712056356 -6.406093602192116  0.1310962652312698 -1.654644962734169 -0.6042439460870843  -0.4707293867204804 -1.530289186813264 -0.5559191580154765  -1.822835382553265 0.9023313336346904 -1.866654569906956  -1.767591102686708 0.8290396495429351 -1.1460016200203  0.5337238998423817 1.857485559180092 -4.421592984267588  0.3504713535943773 1.956134070556887 -5.239891032676874  -0.1596165136097691 1.943044778727124 -4.505137108445177  -1.923898524402078 1.191024440435295 -3.686226864476761  -2.084842066863589 0.8631831762375495 -3.166209239171992  -1.703505031589434 1.344111347336845 -2.918822311594967  -2.035591907656177 0.3706974061098029 -1.727985308639779  0.4850027908389338 -1.850417878205827 -1.166216324018075  1.175813120119416 1.760716716421302 -0.7549541588258001  -2.172534871201097 0.5522969610865935 -3.892135391125882  -2.098819003747127 -0.6402582066832243 -2.826551329674348  -1.789769106428489 -1.225304424041584 -2.480242211750561  -2.059404733202208 -0.7111234201483421 -2.219753624439208  2.153404926126704 -0.08003414596864501 -1.283198917465362  1.17768306587446 1.68249321450992 -1.686445693798291  1.12160590363357 1.474264327889236 -2.661447815258008  1.804464317155441 1.123811136995489 -4.792307557384294  -1.866608453972653 -0.5908865057628645 -1.102405254577203  0.3842306849762301 1.784794739885665 -2.987955939249798  -1.47200336772212 -1.304169169883878 -1.178156771024343  -0.8540512354434128 -1.686949155674365 -1.060716723970079  1.973646241210222 -0.7129512625311256 -1.20176303418431  1.610016791517307 -1.054591225846901 -0.7508175284833428  -0.7915420052810862 -1.996235714714233 -2.44765209388009  -1.40494401109365 -1.614493387774353 -2.044184561221008  -1.347943428412183 -1.680615911090232 -2.809126063359881  -0.8884254371705795 -1.899469722339562 -1.666747426549942  -0.2089438468099056 1.896824428713149 -2.691601810549974  -1.112051137572175 -1.566682824217141 -4.531527083560752  -0.995735060627387 -1.20537531521107 -5.509890027975749  -0.4483732170737729 -1.806515902113935 -5.00056590754902  -2.065572706571461 0.677553557570699 -2.497482499616388  -0.1646563221198379 -1.954005332473924 -1.268401953873108  -1.141904083948901 0.3900260796673192 -6.564415898828653  -0.7735558821408645 0.9926346702497441 -6.831743511526486  -0.6443146420249374 0.3534116862246667 -7.219697572459068  2.092883666968012 -0.8498054593496106 -6.290746941390642  2.211081064389358 -0.6561220727707797 -6.969976693761807  2.342660796352553 -0.4078581393789846 -6.388920159068228  1.814023889938417 0.6092828005694365 -2.767458938178656  -1.13803214787805 1.149412867769182 -6.185607330969476  1.154346267238881 -1.594371211309649 -1.1811439436103  1.731043850012667 -1.220188106017461 -1.581973768809117  1.152865608926708 -1.938627318126694 -2.626053223257312  1.344354774138182 -1.719257916701092 -1.938744440851751  0.6311609332011496 -2.045328078804349 -1.834382480894368  -2.014157052998269 -0.6833441460607521 -3.664251762730728  -1.736827508016859 -1.265472545480176 -3.24594598678473  -1.628499699531936 -1.191833938454754 -4.10600287533908  -1.233456771239508 -1.730072001585956 -3.614094459716194  -0.1903142398941613 -2.134548661099968 -1.993343005490675  -0.3979233632100606 1.911798595135253 -1.978711816880799  -2.178683733244106 -0.02199565261523305 -2.34529167990322  -1.555663775961439 1.33977818328016 -2.26845143097513  0.3386373970135241 1.622049071460138 -6.841581591439272  0.765718732745323 1.736892083880181 -6.532616949131937  0.9505007248011251 1.543846599201691 -7.143477070176491  -1.502506109119273 -0.4234788052610579 -5.494165571510482  -1.538992138177014 -0.919055407480791 -4.84148145727444  0.3686383033822086 1.878651949172649 -6.092583715743367  -0.2091112951828547 -1.531830155590766 -5.982749224490094  0.842014819791012 -2.07980704798213 -3.493132104019488  0.4528300531324725 -2.197481765740754 -2.710943868506802  0.9309727751153963 1.813392281193113 -5.842315866327329  0.9372837977170506 1.802399384661306 -5.127389809487764  2.266864696833642 0.7927702881296284 -7.176728010052978  2.364423261605413 0.6366020874760293 -6.348546922539491  2.461063227825088 0.06869556031117809 -6.849796690410897  1.237703369292878 1.594724141316958 -4.592173068567035  -0.9892090010361791 1.775486032063505 -2.727078207440586  -0.3891788212484389 1.927379557530503 -3.377934038190294  -1.846238140623186 -1.048895339723716 -1.732059613900865  -1.064770485066532 1.675812358559515 -2.066264801374779  0.3651654759842536 -2.163625856041295 -4.067181996898994  0.2879090666517414 -2.223563197271557 -3.305592366735571  -0.2161545314972745 -2.187127834204964 -3.620778692467207  1.639234704511348 -1.469841670294408 -2.35570918481882  -0.2176359966177874 -2.17914627832354 -2.767907838495024  1.50812708494356 -1.578714963790967 -2.881867699581369  1.896648434846081 -0.9230461904727095 -2.333119940226806  1.763220450420865 -1.048453289273861 -2.972497192237332  -2.235851728016741 0.04056069667753835 -3.270887360664705  -2.097493298249281 -0.33940635488549 -1.64068748195247  -1.266819179346636 -0.1474129732898595 -6.180396200660282  -1.08575634756457 -0.6803709722545219 -6.061718595024833  1.248384829093838 -1.829718375306035 -3.259404213279328  1.567240589939651 -1.342533642239527 -3.560262337546328  -0.9105496184067581 1.857651703815576 -4.048524063981397  -1.422797943885269 1.491881252986747 -4.667589072843912  -1.614596489363889 1.488960224502388 -4.089017104952418  -0.7240194874818459 -0.4729014488307286 -6.82
[...]
<PointData  Vectors="f_707412-0"> 
<DataArray  type="Float64"  Name="f_707412-0"  NumberOfComponents="3" format="ascii">1.6402658916537396e-01 -2.6774779054462398e-02 0.0000000000000000e+00  6.8499385469495425e-02 -8.1566566554131789e-02 0.0000000000000000e+00  1.7591901993916861e-01 7.3809764979088852e-02 0.0000000000000000e+00  1.5688476320162273e-01 1.7049636668586191e-01 0.0000000000000000e+00  1.0803144710546091e-01 2.3330312178982313e-01 0.0000000000000000e+00  3.1542548951499619e-02 2.4114037975191902e-01 0.0000000000000000e+00  -5.1962885177200185e-02 2.0912485619248322e-01 0.0000000000000000e+00  -1.2741383298540510e-01 1.5533852839804826e-01 0.0000000000000000e+00  -1.8856304275080615e-01 8.2097347898206080e-02 0.0000000000000000e+00  -2.2022748175854157e-01 -9.0291350124683603e-03 0.0000000000000000e+00  -2.1834700036105859e-01 -1.1154099982000376e-01 0.0000000000000000e+00  -1.7808871767695131e-01 -1.9898848843900832e-01 0.0000000000000000e+00  -1.0519413802471025e-01 -2.4500313463675785e-01 0.0000000000000000e+00  -1.5156564764497267e-02 -2.4258323444594687e-01 0.0000000000000000e+00  6.7449342350019328e-02 -1.9700112396704186e-01 0.0000000000000000e+00  1.2845558506667556e-01 -1.2057950053759221e-01 0.0000000000000000e+00  7.8912734846853239e-02 -4.7540159152801471e-02 0.0000000000000000e+00  8.8761459110688071e-02 -1.6383578225914255e-02 0.0000000000000000e+00  9.7493134606177007e-02 1.4990214345197117e-02 0.0000000000000000e+00  1.0883550217366894e-01 5.0912095695084585e-02 0.0000000000000000e+00  1.1382211822510375e-01 1.0427587576279576e-01 0.0000000000000000e+00  9.7085526340473072e-02 1.6217975765531170e-01 0.0000000000000000e+00  4.6299568814744195e-02 1.9600100869634085e-01 0.0000000000000000e+00  -1.4700688431797991e-02 1.8097286365297222e-01 0.0000000000000000e+00  -5.7871183208829564e-02 1.4280786713014079e-01 0.0000000000000000e+00  -8.2622201836236642e-02 1.0458504740333585e-01 0.0000000000000000e+00  -1.0183087771456631e-01 7.3123195417481801e-02 0.0000000000000000e+00  -1.2265775812311584e-01 4.3653320104498641e-02 0.0000000000000000e+00  -1.4300242528633886e-01 6.8039658237671382e-03 0.0000000000000000e+00  -1.5657865072576430e-01 -3.2539185039728864e-02 0.0000000000000000e+00  -1.6205052737768172e-01 -8.3435578530644539e-02 0.0000000000000000e+00  -1.5234244215189552e-01 -1.3517217386633140e-01 0.0000000000000000e+00  -1.1409948898637060e-01 -1.7598137203046829e-01 0.0000000000000000e+00  -6.1334503324955214e-02 -1.8737245942091815e-01 0.0000000000000000e+00  -1.3334960256309550e-02 -1.7835687142539480e-01 0.0000000000000000e+00  2.7266262090331506e-02 -1.5298877946359146e-01 0.0000000000000000e+00  5.4252405230443862e-02 -1.1762077970938260e-01 0.0000000000000000e+00  -7.1344996309297068e-02 1.8283852885231205e-01 -3.5761984881618768e-02  -3.3453833144922382e-02 2.1120687811316693e-01 -1.6713754019520365e-02  6.1876427517589426e-03 2.2050001960143159e-01 -3.6576334547398066e-02  1.6394178986134164e-01 8.8046422580242201e-02 -1.4383634113609394e-02  1.5478714001650551e-01 1.4560401045099158e-01 -5.1998154908008314e-03  1.6780247436773574e-01 2.0644411601425917e-02 -7.5897392108134152e-03  -1.0695338404100053e-01 1.6121974312782023e-01 -1.3253938722264736e-02  -1.3136115709304441e-01 1.2911994658762890e-01 -3.1766968086498489e-02  1.6541285031078168e-01 1.4310312783134010e-01 -8.5586774450121764e-02  1.1089792797777813e-01 2.0082831427684636e-01 -8.5951157437400325e-02  1.7157413576474462e-01 1.4548591862123736e-01 -8.2097375320785274e-02  -1.6518854658863905e-01 9.9840374479149924e-02 -5.9184420387055686e-03  6.4602411091346637e-02 -2.0646134147421932e-01 7.8838330878672740e-03  2.2729943566460027e-02 -2.2989615813891554e-01 9.1910075513991305e-03  1.6213674839355169e-01 1.2937693655643009e-01 -6.7600526140644768e-02  1.4607403327722732e-01 1.4384521323855703e-01 -3.5918758182514610e-02  1.7045198859475147e-01 6.6812400133430247e-02 -4.0097453855467646e-02  -1.7646243821327418e-01 -1.8938517678211619e-01 1.7121090799147563e-02  -2.0558776632843781e-01 -1.2458895821290494e-01 1.3137887305940078e-02  2.2335369144782397e-01 -9.1997753951747648e-03 -8.6099471616420384e-02  1.9403199281939865e-01 2.7766916700347370e-02 -6.4939442712799056e-02  1.8281013902997195e-01 -4.7173427538515431e-02 -5.3221003593832389e-02  7.0917353572245018e-02 2.1749241454341328e-01 -3.8768815496064750e-02  5.4765236196550604e-02 2.3368584875906190e-01 -1.3814631873631352e-02  6.1049658272144071e-02 2.1654034849974729e-01 -6.2789688122536269e-02  -2.1782406510520247e-01 -5.3442595608849570e-02 1.0428272499118181e-02  -2.0389543933751916e-01 2.9231781770683144e-02 4.3485276414395695e-03  -1.9957135910207818e-01 -1.0620609400899673e-03 -6.6051364653916212e-03  7.6744084969517373e-02 -1.3296088057675562e-01 -1.6542315763938142e-01  5.9369622925248493e-02 -1.4673493514441510e-01 -1.5617204539318863e-01  1.0402184756201405e-02 -1.5542729195189117e-01 -1.8484240564387436e-01  5.3687401206213067e-03 -1.6694471883353212e-01 -1.6074445315774041e-01  1.5137732590259903e-01 -7.1408908596475584e-02 -1.9109069168731607e-03  1.2409443826308091e-01 1.5852226825066743e-01 -1.2826933998827550e-01  1.7132470554402227e-01 8.0046647214698355e-02 -1.1658094265342449e-01  1.2390625754603586e-01 1.1682529982578919e-01 -1.5139532343159076e-01  -4.3064938609192277e-02 -2.4885771019491548e-01 1.2647156822851162e-02  -1.1160719207160208e-01 -2.4138858198462129e-01 1.6339720084027985e-02  -1.5978884068561855e-01 8.2630726569372231e-02 -4.1912224820292159e-02  -1.7526442960566666e-01 7.0170309150241528e-02 -1.6396936809461249e-02  6.8438398729290750e-02 2.1056779267142947e-01 -1.0470919892988990e-01  3.1261379208538935e-02 2.0040433468549226e-01 -1.3506612855516253e-01  3.8535021983306227e-03 2.0602773506550312e-01 -1.1796590487635447e-01  -1.3573864074529590e-01 8.1018679848266134e-02 -1.1010064591306605e-01  -1.5725998863838134e-01 5.6193099139265207e-02 -9.1968832659529223e-02  -1.2238821400332696e-01 1.1311842861809702e-01 -7.5715778235411146e-02  -1.8312981533692799e-01 2.8946402338311382e-02 -3.7844249789395837e-02  5.7419211238646239e-03 -2.2672450930126897e-01 -4.1522000487220437e-03  1.1598682973562464e-01 2.0049082897143847e-01 -1.6229707712642524e-02  -1.7346548193699979e-01 1.4165486659937937e-02 -1.3021923917122144e-01  -1.9830645677257269e-01 -8.2306347852924622e-02 -9.7223909554075977e-02  -1.8170508850686815e-01 -1.3536666278809328e-01 -8.3141904319278828e-02  -1.9221069872858770e-01 -8.1334817887142738e-02 -6.8901381083475779e-02  1.6940180597850613e-01 -1.5391964740500226e-02 -2.7390539314562062e-02  1.1443702181313227e-01 1.8959862215582729e-01 -5.5235738906830631e-02  1.3149096027615931e-01 1.8410194004434105e-01 -7.8334156230065705e-02  1.7149380311315798e-01 1.1839448268735120e-01 -9.8246500024971706e-02  -1.9945346921550977e-01 -8.0289160092505793e-02 -8.0785714363851603e-03  6.8810595585253598e-02 2.1646745688720612e-01 -7.8634493879030015e-02  -1.7198936802020182e-01 -1.5751736376297482e-01 -1.2239489493283242e-02  -1.2663171579023072e-01 -2.1278403077372091e-01 -2.0051449326040018e-03  1.5094901056519308e-01 -8.5138502859921888e-02 -1.9416299128358429e-02  1.1568167742807854e-01 -1.4510653865314171e-01 -4.1198578710921572e-04  -1.0456969075583723e-01 -2.0614774893844207e-01 -7.4836337015689008e-02  -1.5314156909587531e-01 -1.7203605548502926e-01 -5.9791702189236337e-02  -1.5146858480875253e-01 -1.7901171219000764e-01 -9.6002238106543500e-02  -1.1480404849803065e-01 -2.0312626593216707e-01 -3.7334432733928419e-02  8.1592922969672289e-03 2.1154527006262974e-01 -7.1048929341595402e-02  -1.4657165583610410e-01 -1.7425868647258019e-01 -1.7530562055726701e-01  -1.4646859431016285e-01 -1.5415404040049738e-01 -2.1306440236009966e-01  -8.1089179222531005e-02 -1.7898228419443293e-01 -1.8174043401679327e-01  -1.6746723317767512e-01 5.1949185334273930e-02 -6.6945047353680731e-02  -5.6245989276004348e-02 -2.3144775277056798e-01 -9.6805878672281912e-03  -1.3869844689730906e-01 -1.5732316437180288e-02 -2.3501205318892079e-01  -1.0308368958009585e-01 4.8408469750039464e-02 -2.2772019297474122e-01  -1.0929732348869671e-01 -1.0596394698707571e-02 -2.5042437395207129e-01  1.3651992439234381e-01 -7.4676949368185960e-02 -1.5116302262034828e-01  1.1846695624829977e-01 -5.3471308818997310e-02 -1.7105970014990454e-01  1.5444401612127542e-01 -3.5627586064071036e-02 -1.4646709003392014e-01  1.9946303151951106e-01 8.0235852565226320e-02 -8.1613416202791500e-02  -1.1606494121337818e-01 6.1119668356194042e-02 -2.0088439386247756e-01  7.2841210920609148e-02 -1.9068031923533466e-01 -7.8527078228600011e-03  1.3341033557625143e-01 -1.2530289139211911e-01 -3.0829986106633046e-02  8.6935155857653407e-02 -1.6098851456990193e-01 -7.3840826134235676e-02  9.5472967454663785e-02 -1.6059590331754217e-01 -4.2686820833494031e-02  2.3463933162663677e-02 -2.0423564342256031e-01 -3.6291980428088830e-02  -2.0473925639286367e-01 -9.9625464563624061e-02 -1.3776793337402421e-01  -1.8477570473908264e-01 -1.4521552325567230e-01 -1.1948603295594470e-01  -1.8708780002130598e-01 -1.4760941959985646e-01 -1.6067262995073153e-01  -1.4602035096311750e-01 -1.8091610125335297e-01 -1.3247157414201341e-01  -5.0798234603704931e-02 -2.1616981895002854e-01 -4.8729929854503945e-02  -2.3296262031931188e-02 2.0441487078191245e-01 -5.3835549348355112e-02  -1.9066908835773480e-01 -1.3907468085836813e-02 -6.8685702255942574e-02  -1.2355437285720905e-01 1.2630804994564554e-01 -5.3919293525807210e-02  -1.7051130751942065e-02 1.4106260667688436e-01 -2.0220613987814315e-01  2.9404598405265141e-02 1.6411144544160383e-01 -1.8064316365650868e-01  2.0942659243105392e-02 1.3580900230743953e-01 -1.9877030563178913e-01  -1.8631315861560729e-01 -9.4104188145634746e-02 -2.1650548936128744e-01  -1.8979404507396777e-01 -1.3329419769934814e-01 -1.9424301913079692e-01  1.1243088367152262e-02 1.7458281030929210e-01 -1.6990722587943519e-01  -6.7761624855718183e-02 -1.6173724486482260e-01 -2.1080689915417278e-01  6.7881701893162880e-02 -1.6408147859174274e-01 -1.0656503300907806e-01  1.4555469974115795e-02 -1.9353332732488865e-01 -7.7428064868977367e-02  6.5087697881932832e-02 1.8277344546368007e-01 -1.4983177103751943e-01  8.6691671999322484e-02 1.9372150713949524e-01 -1.2231982806236556e-01  1.0806429166884436e-01 6.9787832076421863e-02 -1.7480565070529161e-01  1.5119356244882592e-01 5.9514011938295315e-02 -1.4315703629437837e-01  1.3973676409177799e-01 8.0438100084033286e-03 -1.6033626396900558e-01  1.2709935904536993e-01 1.7728481743944544e-01 -1.0062574251623203e-01  -6.1784770230389384e-02 1.7548178957277669e-01 -6.8177875867013474e-02  -2.8007200822217238e-03 2.0630518920226396e-01 -8.6880304113150147e-02  -1.8308596016575232e-01 -1.1560541827478037e-01 -4.4575754648345206e-02  -8.4043194374794669e-02 1.6778212561738409e-01 -5.0874111543274661e-02  1.5855818490348225e-02 -1.7347231428263687e-01 -1.3069632773980672e-01  3.2346042863305897e-03 -1.8858691032470098e-01 -1.0243803772005421e-01  -4.6398632221098440e-02 -1.9465503071515997e-01 -1.1951371645782040e-01  1.4332588896046650e-01 -1.2231758331054640e-01 -6.4412049694817369e-02  -5.1360034789147642e-02 -2.0764034269716966e-01 -8.3680411147510472e-02  1.4884828744343639e-01 -1.2508495572533726e-01 -8.5209595619140960e-02  1.8381755687839124e-01 -7.5660562309193949e-02 -6.7496149311870715e-02  2.0201269575979514e-01 -8.0226094584310334e-02 -8.8458548803318854e-02  -1.9306870660712874e-01 -2.4725716457134696e-02 -1.0939833894827082e-01  -1.9141190748431933e-01 -4.1406371574233519e-02 -3.8088341731593187e-02  -1.6389318638577069e-01 -6.7555802305795415e-02 -2.3478117376586022e-01  -1.5895741494984433e-01 -1.1456230145707350e-01 -2.3426802019994586e-01  1.1876630815380398e-01 -1.4199154104758022e-01 -9.7454529502999682e-02  1.8596418504540796e-01 -1.0319459523057777e-01 -1.0217635936963984e-01  -5.1794055760846482e-02 1.7550344921550862e-01 -1.1325015021420920e-01  -1.0683982880035305e-01 1.1662424881318963e-01 -1.4529596530677033e-01  -1.0825646600230587e-01 1.1359127930412362e-01 -1.2354248486672552e-01  -1.2587053330306269e-01 -8.8571632305226453e-02 -2.5019096050717204e-01  -9.1745868487686094e-02 1.4051259499560056e-01 -9.4546576389077708e-02  1.3776494991745927e-01 -1.2952721377843515e-01 -1.1422017621215362e-01  -1.4562646810039576e-01 5.7606582389224878e-02 -1.3999621419503805e-01  -1.1570263711094492e-01 9.0779165040588722e-02 -1.7343027184358903e-01  -6.5648121711022994e-02 1.6024666652993594e-01 -1.4253387488976935e-01  -9.9332913545339838e-02 -1.9962121466204719e-01 -1.0818252361714401e-01  -9.5730830258666647e-02 -1.8845897662086003e-01 -1.4704676810891434e-01  -5.2507486875397720e-03 -4.8470814125280245e-02 -2.3539554011275562e-01  -2.2466696460901079e-02 -9.4489690302073763e-03 -2.4019550425051112e-01  2.9715081169112069e-02 -1.9580666911966662e-02 -2.2032487812211443e-01  -1.7828142557355978e-01 -6.8662677242767945e-03 -1.7297726449133524e-01  -2.0022053145532692e-01 -5.2360932799413847e-02 -1.5398484737777501e-01  2.0886430622319954e-01 8.3467936872686013e-02 -8.1939801927217684e-02  7.7234738649162348e-04 2.7631079962387950e-02 -2.2064250786534886e-01  -2.0501539759373683e-01 -1.0490934698132115e-01 -1.7135677415122541e-01  -2.0072139561563312e-01 -7.7451988815370562e-02 -1.8814137054800581e-01  -4.9951107534199256e-02 1.7851542050686178e-01 -8.8153598152858337e-02  -3.5919300546189394e-02 -1.8253012989704936e-01 -1.4959411852998886e-01  -1.2831245671696521e-02 1.7708002194151407e-01 -1.5897236602502321e-01  -3.9277278069952307e-02 3.4122055801568345e-02 -2.3763892020817984e-01  -3.3198018665769942e-02 9.4859357341122316e-02 -2.2492528395906172e-01  7.8319485093838077e-03 8.5136017901378244e-02 -2.1563503866229722e-01  2.2610991784141662e-01 3.6177220198650467e-02 -8.5533952971627969e-02  2.3463319243266867e-01 1.7592305634848097e-02 -8.4182159855267252e-02  2.7689984567083738e-03 2.0701630641550897e-01 -1.0153171644487083e-01  4.4897754300558708e-02 2.1628430754846370e-01 -9.3744673529827627e-02  1.9484118135933615e-01 -9.4496873556016589e-02 -1.0548469034587497e-01  2.3408229495385902e-01 -5.4396447091177573e-02 -9.3863182580161519e-02  7.5227398141799171e-02 -1.5038905458353288e-01 -1.3370025425096585e-01  -1.6021244150566452e-01 -3.3475673170134603e-03 -2.0535850257972288e-01  -2.9522655999705074e-02 1.8346172685473949e-01 -1.4386209106083730e-01  7.9971949118977953e-02 1.5470922771606790e-01 -1.6491722223495314e-01  -1.4335368972322199e-01 5.5786782326248500e-02 -1.7055885592916215e-01  -7.0444454869306700e-02 1.3899546158412693e-01 -1.7116673507713812e-01  -1.8760229803639733e-01 -4.8914125558967139e-02 -1.9927113767327681e-01  1.6970920788026278e-01 1.3808118779194326e-01 -7.9958918177839761e-02  4.9862313936921719e-02 5.9590085514003244e-02 -2.0363508545162981e-01  5.1997073018675774e-02 1.8192329832638368e-02 -1.9923869864874366e-01  5.6455065644014188e-02 -3.4256342444379417e-02 -2.0680967678252068e-01  1.3054015539882360e-01 -1.2052144800489546e-01 -1.3160040168906448e-01  2.0075005319528128e-01 7.9600755082411989e-02 -8.3601534386321910e-02  2.0900337648607312e-01 4.4963000329496863e-02 -8.9273314864958001e-02  9.7434636046245443e-02 -1.9380771029512616e-02 -1.8672840905354171e-01  7.3917686650771794e-02 -7.5628747716175906e-02 -1.9522283160589671e-01  1.7637740711933722e-01 -4.8723409651299981e-02 -1.2422732826883186e-01  -2.1432943140208733e-02 -1.4946392933890970e-01 -2.1130810489215338e-01  -1.7347903660430427e-02 -1.3011670700944220e-01 -2.2142352984332603e-01  3.3982837922950745e-02 -1.3668994098649773e-01 -1.9449965092928700e-01  3.7296342436872125e-02 -1.0587850007258105e-01 -2.0604646278934968e-01  -7.9899719847971382e-02 1.0082725019161563e-01 -2.0257734546576697e-01  -6.3873592635450505e-02 9.9513273921310180e-02 -2.2090739059006423e-01  1.8291444525523085e-01 -8.3792654092453969e-02 -1.1318482865147392e-01  2.2284146458333834e-01 -6.0289803997470116e-02 -9.4475987029538994e-02  2.1198293872597812e-01 -3.8404744309238500e-02 -9.7834526392987481e-02  1.8229434663465832e-01 7.7788757908652459e-02 -6.6149076575991034e-02  1.3346980165977415e-01 -1.0102462416780257e-01 -1.4281591174555117e-01  -3.4907780608741786e-02 -1.6951211810146830e-01 -1.8636642407527532e-01  -8.1277978813204019e-02 5.0235355314283962e-02 -2.4094382662647978e-01  -7.4652962178452922e-02 1.6513414816827242e-02 -2.4868304270549793e-01  -1.2208479207996890e-01 -1.3811566634652192e-01 -2.3421115481969948e-01  -7.0728542098154323e-02 -1.3089474581572549e-01 -2.3527849534408291e-01  -4.1070641392773152e-02 1.4100980760588064e-01 -1.9054146496837526e-01  1.7554436967211673e-01 9.9736848415365922e-03 -1.2715585247048006e-01  2.3102107425136478e-01 -1.8373682606128167e-02 -8.6264858987947196e-02  2.0364254760493622e-01 3.0782446539683716e-03 -1.0224290269167106e-01  -9.3806896889308031e-02 -4.3475395150542599e-02 -2.5642570916893520e-01  -5.1982331887846879e-02 -3.6392234309273547e-02 -2.5011015233719186e-01  8.8555934831986399e-02 -1.0809569063427406e-01 -1.7588559071447124e-01  2.7297240757691948e-02 -7.2557382645142304e-02 -2.1905601845571393e-01  6.7449914325111590e-02 1.1409098246255997e-01 -1.8915955439384760e-01  -2.5098904365771963e-02 -9.4833243176015561e-02 -2.3579179537733064e-01  9.0843479350220524e-02 3.0698735043253978e-02 -1.8722514704775298e-01  -7.7900298156869982e-02 -8.6445317477290923e-02 -2.4946577657384703e-01  -1.2916555818253153e-01 7.0314033128755079e-03 -3.7785235052361962e-02  -1.0600603423630101e-01 3.6465322354957898e-02 -4.4355473558792158e-02  -1.1235007005799860e-01 1.5086465439305689e-02 -5.7801978883291298e-02  -1.1252491324215051e-01 -7.0849579239168148e-03 -8.6125563682330195e-02  -9.8081484169462912e-02 1.1808606959075589e-02 -8.0894277361284558e-02  -1.0377314496820821e-01 1.2007463207442776e-02 -9.8099276988684314e-02  -6.6947182708383249e-02 1.0444029328064973e-01 -2.9476237709256645e-02  -4.9770149949512010e-02 1.1840510502360439e-01 -3.7439660632242577e-02  -6.0196613018586455e-02 9.2574650105948522e-02 -4.6135840524968448e-02  -1.2612456776569769e-01 -1.7728400630665241e-02 -1.0763512183453774e-01  -1.4803770175078937e-01 -4.8848215578170616e-02 -4.4362239392881316e-02  -1.3227128220216741e-01 -3.2259068094904315e-02 -6.3046718728173787e-02  -1.3559059086936687e-01 -6.1414996176028629e-02 -6.5955462150225089e-02  -1.2572660918625100e-01 -3.5959320534490802e-02 -9.2314199777452144e-02  -3.8665237521191505e-02 1.1498489798567935e-01 -5.0353717357713448e-02  9.1419442740276469e-02 9.5524058989083740e-02 -8.8731376779098703e-02  7.7057456895684634e-02 1.1107679382658717e-01 -9.6712476689429644e-02  7.0452814069564690e-02 1.1469485873469519e-01 -7.8355778273582255e-02  4.0627640715532383e-02 -3.4639961929386502e-02 -1.9305568984058499e-01  3.2489584645767761e-02 -4.5296637234970023e-02 -1.9744031257317232e-01  3.2615751697621945e-02 -2.8354309302656897e-02 -1.9885781183320245e-01  4.4569090362694807e-03 -1.2642894474083777e-01 -7.7692490976168760e-02  2.6054285875450205e-02 -1.1571024258325854e-01 -6.6098793831170399e-02  1.9095995074537963e-03 -1.4066566573660749e-01 -5.8916853896659904e-02  2.0285460961916291e-02 -1.0812870768308983e-01 -8.7412205536727891e-02  3.8398938558335399e-03 -1.5263385213296357e-01 -3.6189103730717979e-02  -3.6524199455139766e-02 -1.5915992865729411e-01 -5.3523637327376396e-02  -1.2115117400209048e-01 -2.6708962208516634e-02 -7.2448064385935748e-02  -1.1721376532973637e-01 -2.3530894582749953e-02 -7.8741869556843175e-02  -1.2336022572675620e-01 -5.6101867063023586e-02 -7.6623014121162070e-02  -1.0699275626878567e-01 1.2236697871836650e-03 -7.4331650273115821e-02  -1.2299248976276973e-01 -6.0561174053181052e-02 -8.6173259821672579e-02  -1.2893205938839636e-01 -7.0564494997471916e-02 -1.0193108874738836e-01  -1.1652900283498077e-01 -9.4262878215764859e-02 -9.8467037638137161e-02  2.0410301238433144e-02 -4.7093507120585347e-02 -2.0647184164583807e-01  -9.5607943321532565e-02 3.1936644525