<?xml version="1.0"?>
<VTKFile type="UnstructuredGrid"  version="0.1"  >
<UnstructuredGrid>
<Piece  NumberOfPoints="600" NumberOfCells="1790">
<Points>
<DataArray  type="Float64"  NumberOfComponents="3"  format="ascii">0.259448833020977 2.177701251484099 -1.325801364195077e-15  2.925520873394342 0.06994482168643822 -8.946014025681484e-16  -0.4531824393361594 2.179565306699561 -1.326364277732966e-15  -1.086168098188853 1.85215365307164 -8.886338891663782e-16  -1.542382621800629 1.305551009408289 -8.85333025711159e-16  -1.7675382002564 0.6224229087101549 -8.867136284408649e-16  -1.737384679582493 -0.09165538024281016 -8.833416534173639e-16  -1.447506468272734 -0.7369137167744466 -4.520206776344111e-16  -0.9296351324359864 -1.215038317957019 -4.452645302720049e-16  -0.2653241820005804 -1.438545626651726 -4.503658473031276e-16  0.4387213239517767 -1.362569630006892 -4.397102213907142e-16  1.077611252741047 -1.048971191630225 -4.457439374525543e-16  1.564692515983818 -0.5301960904342493 -4.499529770648521e-16  1.814945801598047 0.1330906572443752 -8.90886497443526e-16  1.774907762850853 0.8334142415547957 -8.892187300321945e-16  1.462768274314916 1.462247359604761 -8.872886102660062e-16  0.9314560762684334 1.937229185320183 -8.820532112082225e-16  2.869403706434539 0.8289492651406066 -8.855628042611594e-16  2.535939990469986 1.512309589570788 -8.84958913213462e-16  2.010471577564689 2.053858553062105 -8.879613701187605e-16  1.368539834265421 2.436884893053405 -1.32272136859628e-15  0.6679569855744919 2.685053973095167 -1.31973176288526e-15  -0.06336072840861094 2.812795318365756 -1.319182571136164e-15  -0.8075604027562537 2.75205719347631 -1.332636726471951e-15  -1.493165672638809 2.45058776164487 -1.328790476580409e-15  -2.061778726447399 1.957332920866061 -8.750035698543001e-16  -2.46406680990143 1.320769955524868 -8.816981903960496e-16  -2.702825268999049 0.604966096016624 -8.763634658587893e-16  -2.747470057918536 -0.1463662625983588 -8.602970472346827e-16  -2.568513950030647 -0.8810437347733221 -4.350826302026031e-16  -2.183375732472739 -1.530853347599577 -4.478885722508673e-16  -1.628924639444756 -2.038446704899413 2.564186198008319e-18  -0.9625431093830016 -2.381026047067319 2.059578868871746e-18  -0.2294490156674952 -2.533989847780689 3.879668055723062e-18  0.5202908205592526 -2.504376511306598 3.798566289883241e-18  1.235475704356946 -2.272361636676345 9.274782996833489e-19  1.868106756987526 -1.870171344199517 -4.437525488996502e-16  2.385593920151658 -1.326210088798614 -4.494435191920047e-16  2.749930010356982 -0.6651662710621039 -4.408197327822402e-16  -1.72587249358886 -0.7477994889855597 -0.6194527321129114  -1.644704559162174 -1.20088721866986 -1.261327311988791  -1.342305318922473 -1.290171843515233 -0.6512594772214246  -1.153727038921458 -1.653736646895277 -1.379229864002536  -0.2591614283059192 -1.83913998913557 -0.8160027262721797  0.2305721657284017 -1.651397371867288 -0.4581154374837895  -0.7429860136216005 -1.568660160235527 -0.4476658024331099  -1.854613630187997 -0.9635498622347066 -1.821685016923972  -1.901246662268119 -0.9412765198223942 -2.543483614486695  -1.635682513300748 -1.333350423832663 -2.321220117656556  -0.8404745613585787 -1.750116039665717 -0.9544001295563029  -0.4506234396748502 1.861288934815959 -2.832716069397191  -0.4842761546831633 1.881851969636644 -3.454950443051465  -1.061893179649682 1.739173319141966 -3.078569931028563  2.081225382252256 0.3026782374675894 -2.0482380421052  2.010542634538897 -0.5143331262041329 -2.094982668427473  1.982216427990794 -0.02063654560667727 -2.940858704320956  -0.3789786962256713 1.991013998586366 -1.492427800460374  -0.1052576566176992 1.908022181319256 -2.178150909016221  -0.7614845387332128 1.78922679258539 -2.255054701424401  2.120275589097224 -0.1390596553623548 -1.168562470094963  -1.904393208844254 0.2745589465633829 -0.6615050431846867  -1.768511387659344 0.8260090365201113 -0.5681091430616125  -1.381884586453987 -0.4204470825377657 -5.104857611077017  -1.064569167278118 -0.2213653061468889 -5.889937942782711  -0.8584489147979449 -0.7758984073770467 -5.611639030650057  1.874494305314265 -0.8386524298243894 -1.240932420483502  2.092519454570973 0.7006763225115789 -1.323421210620394  -2.062627902589406 -0.4829314102493703 -2.038379826829073  -2.028266443354986 -0.04537420826963075 -1.387197462929348  -2.099120071970316 0.2951270793461065 -2.08718641188976  0.8308548307155048 -1.537397244500155 -0.6048401983269589  -1.589862654072534 1.197544957803747 -0.8604099422876922  -1.869357311385443 0.6300634228042766 -1.319506912842149  0.4097209566642832 0.1346804982849223 -7.895354546175649  0.008364368746096702 0.4233403753469228 -7.569453925566621  0.4770651172663727 0.8427781763270755 -7.865925162149976  -0.9626985112693912 1.779206799967588 -4.070204409055704  -0.597723978270067 -1.26863681540979 -5.216357171349225  -0.2756204283264242 -1.650777577128582 -4.74662286619757  -0.9372359391507977 -1.41689123674435 -4.405806763991167  1.73529566807259 1.365350145661622 -1.378117567540339  1.263046734980287 1.68268770999042 -1.644087058318523  1.368342669430052 1.765400562386607 -0.7918152309657887  -0.8374391110178175 1.97492978876602 -0.7782858472920954  -0.258177889386574 2.207599099532194 -0.6620759722777965  0.782260788990246 2.000923974686672 -1.297828226134676  0.7580803776531864 2.096630665013096 -0.5436236831438369  0.06813411887691694 0.95084277235366 -7.457044168070714  -0.4081270860410098 1.924384128064433 -4.226298880194751  0.1773438911431725 1.888407841051613 -3.848293916058787  0.1470882084501232 1.815229536061895 -2.943381454372156  -1.913942155629046 -0.2685625488281042 -0.7229094778319526  -1.947947638442947 -0.6002196257545067 -1.290319545315714  -1.268483989214407 1.580542061138488 -1.046339753890216  -1.549673681150657 1.220448580535995 -1.668191550864352  -1.014951260709519 1.699059615719583 -1.612027446272843  0.2591557382144699 2.178785204418335 -0.9724818239786215  -2.134168024159237 -0.3360394206006783 -2.729951966411266  -2.183532728659973 0.3161461736432428 -3.004119040888404  0.3111010957701445 -1.849419006767492 -0.9180343890207813  -1.382725322952752 1.480121868582609 -2.355092809068166  -2.081474799328106 0.7928051272531622 -3.447420455887088  -2.087387159357811 0.1796746310150224 -3.783291633893927  1.435303361478706 -1.132229246321028 -0.6569175185379613  1.390090719957638 -1.466097488345476 -1.238641772769854  1.850777530791909 -0.5075923154982775 -0.6050492365825736  1.408900937607347 -1.597173077509402 -2.689264767517528  1.799347167161863 -1.061014813429227 -2.561274678051163  1.715470300796854 -1.227896185727662 -1.969516179144678  -1.896801608703272 0.9488130323401515 -2.502377856888379  0.7750084883802867 -1.872228178757219 -1.387558892591473  -1.328237044798833 1.62474697680025 -0.4091712225107996  0.9330408885344804 -0.259063593873577 -8.075400223316276  0.3586791319520671 -0.4815982376419551 -7.533692366693825  -0.5245009012328639 -1.94726848574109 -1.550676747380472  -0.8343101896656598 -1.903811571831124 -2.033143124731154  -0.1466929255140843 -2.086594626513738 -2.098670456275022  1.679327664884205 -1.21223459031686 -3.164304395173525  1.725809632830416 1.099310001909698 -2.12970248378367  2.044068095353913 0.3196714917101002 -0.6144817094908243  1.284839994541926 -1.660587071555497 -3.612854358271885  -0.5196989927816871 -2.034888105908015 -2.499695639878535  -1.411327552770119 -1.514604447402105 -1.899158620526213  -1.169148388448495 -1.740077474776067 -2.660284519318181  0.1567075987120443 -2.031820941386744 -1.485079320010718  1.256483070884775 -1.719971945701019 -1.884656067256445  0.5729896009728532 -2.057575314661565 -2.129284705055385  -0.5547221301643926 -1.806915081727092 -4.016252742347681  -1.887505527915995 -0.4278855591519879 -3.919787576142025  -1.620162501658358 -0.5656813206304405 -4.419185841502419  -1.490038411690403 -1.01512752203501 -4.083827542145299  0.7829893292111165 -2.018661421248894 -3.008788924215247  0.1004139708155604 -2.137271696535801 -2.838306650988112  0.1795512608249731 -2.048495635931388 -3.641229485758012  -1.679605505874466 1.358692119049731 -3.080631071929157  -1.791041552791242 -0.01805876733538781 -4.516899914855514  1.145560257216585 1.452305939503023 -3.271164141063361  0.7225729169432507 1.658440152162864 -2.815666948486978  1.142586596905205 1.50091845197464 -2.514212417444298  0.6213218827068069 1.821092095189382 -2.155831307756948  0.03974247458974618 -1.881734042312942 -4.303941027437845  0.2804450359067972 -1.733728265188979 -4.818093712381176  -1.796935140200602 1.187421774029554 -3.902959603142375  -1.953536127328904 0.6394272971029358 -4.167306372364215  0.1026208552670868 -1.457977145296151 -5.445308442257838  2.013947903096569 -0.338501895747046 -3.831774793941161  1.993954815775862 0.4572396085614873 -3.621882308154997  1.855730326950554 0.6696435072508418 -2.861432176783413  2.024146413194814 0.8230917366787386 -4.254603996306987  2.215422486288538 0.708542078348033 -5.061689672450846  1.808701891738239 1.274881592423676 -4.664220938243752  2.158120602206475 0.2594581718768851 -4.387199228182705  -1.280212516958336 -1.498069643091316 -3.571106542186353  -1.593437244178035 -1.354347695002756 -2.906889493965761  -1.847270943330474 -0.8726603378323846 -3.385736873796372  1.879245217861943 1.109685115765034 -0.6679015622960707  -1.861664539749393 0.8196761975364193 -1.928578075859514  0.2709306739416898 2.026352027811614 -1.632787633429966  1.896353563798062 -0.6925250525485893 -3.070738329707086  1.71560227933731 1.079184805483187 -3.656566993762535  -1.50437384013956 0.1274721453105617 -5.304300898093597  -0.6258794036151988 -1.984573142430299 -3.242620059219917  0.6072929308489454 1.702883604370207 -3.352353328287518  1.751994756855996 -1.080869673937243 -3.839655594916108  0.8735670178800151 1.738393185070965 -3.950943636167084  -1.620747130515729 1.064720882965921 -4.753770537788553  -0.5233525687304802 -0.5944976873901815 -6.3085549346
[...]
<PointData  Vectors="f_4414300-0"> 
<DataArray  type="Float64"  Name="f_4414300-0"  NumberOfComponents="3" format="ascii">3.3373806321946725e-02 2.5205082634044124e-01 0.0000000000000000e+00  1.0875228937798280e-01 -9.3073326748520906e-03 0.0000000000000000e+00  -4.7960843981624493e-02 2.4105515920839149e-01 0.0000000000000000e+00  -1.2490297163336839e-01 2.0635577014186723e-01 0.0000000000000000e+00  -1.8593277946652365e-01 1.4847610989394333e-01 0.0000000000000000e+00  -2.1881379879137783e-01 7.5093909531094530e-02 0.0000000000000000e+00  -2.2519398160569806e-01 -1.4079185719420236e-02 0.0000000000000000e+00  -2.0194984224708393e-01 -1.0949442829182310e-01 0.0000000000000000e+00  -1.4776894850078268e-01 -1.9325412809192435e-01 0.0000000000000000e+00  -6.3388325950355220e-02 -2.4840387058494581e-01 0.0000000000000000e+00  2.8565973631151549e-02 -2.5917734974282447e-01 0.0000000000000000e+00  1.0908709042278678e-01 -2.2448035250954101e-01 0.0000000000000000e+00  1.6488809017106720e-01 -1.5324597523839414e-01 0.0000000000000000e+00  1.9110502105375834e-01 -6.0141555825323968e-02 0.0000000000000000e+00  1.8704894968529656e-01 4.2251619448467587e-02 0.0000000000000000e+00  1.5874265773506663e-01 1.3963007223859597e-01 0.0000000000000000e+00  1.0804602349206462e-01 2.1464392189274392e-01 0.0000000000000000e+00  1.0250885824195934e-01 1.8369561132938108e-02 0.0000000000000000e+00  1.0405197314671907e-01 5.0053824953332084e-02 0.0000000000000000e+00  1.0207738717259326e-01 9.9302178788727019e-02 0.0000000000000000e+00  7.8274637504209862e-02 1.5414971078256889e-01 0.0000000000000000e+00  2.9602537048952129e-02 1.9073912186538430e-01 0.0000000000000000e+00  -3.0801660231045209e-02 1.8946927553603649e-01 0.0000000000000000e+00  -7.4750862190182524e-02 1.6249775114134229e-01 0.0000000000000000e+00  -1.0836554392065269e-01 1.3009553203251342e-01 0.0000000000000000e+00  -1.3131251265483235e-01 9.3920392038918929e-02 0.0000000000000000e+00  -1.4584541491271893e-01 5.4193057153387535e-02 0.0000000000000000e+00  -1.4667944045252657e-01 1.3175181997532282e-02 0.0000000000000000e+00  -1.3919416121407560e-01 -2.3296003092806022e-02 0.0000000000000000e+00  -1.3017371036835790e-01 -5.6038839098965565e-02 0.0000000000000000e+00  -1.1780145473481121e-01 -9.0481467974513743e-02 0.0000000000000000e+00  -9.7058367505828497e-02 -1.2695913344047596e-01 0.0000000000000000e+00  -6.5218666220470151e-02 -1.5874831621476293e-01 0.0000000000000000e+00  -2.4202672723736572e-02 -1.7641743610028945e-01 0.0000000000000000e+00  2.1191910493228088e-02 -1.7538641419659451e-01 0.0000000000000000e+00  6.1636023576012874e-02 -1.5927924495029991e-01 0.0000000000000000e+00  9.4456627488328448e-02 -1.2724545982579558e-01 0.0000000000000000e+00  1.1146515381247368e-01 -8.6340690576345039e-02 0.0000000000000000e+00  1.1370718735277513e-01 -4.7161336405845591e-02 0.0000000000000000e+00  -1.9999061415409156e-01 -9.7834739788519615e-02 3.9080953175240655e-03  -1.7220110624944132e-01 -1.3764165315038163e-01 -1.5767639824940897e-02  -1.6065041317839576e-01 -1.6841474485702185e-01 5.1189768856898781e-03  -1.2987501580062766e-01 -1.9280104149500926e-01 -1.9344805917130455e-02  -4.4931549581915406e-02 -2.4346594834460397e-01 5.4928029784183079e-03  9.5094458403082172e-03 -2.5827612680410511e-01 1.2164268643882275e-02  -1.0569337596932997e-01 -2.2485998315516242e-01 1.1352700570759591e-02  -1.8473756387059420e-01 -1.0978072655556292e-01 -3.8574300045717942e-02  -1.8510921187282456e-01 -1.1321996498613987e-01 -7.0137484370864450e-02  -1.6471166205984286e-01 -1.5020082054907599e-01 -6.0372922045073364e-02  -1.0222836830253072e-01 -2.1371251878706543e-01 -1.6950673962408520e-03  -2.7709701722324034e-02 2.2857017457511822e-01 -5.8519980445177450e-02  -2.4876846342376024e-02 2.2281113578368025e-01 -6.9564586853921431e-02  -7.8055870708000130e-02 1.8798743873690948e-01 -6.4232935951740039e-02  1.8577643751667955e-01 2.2920578563769386e-02 -4.5348017556331756e-02  1.8950035671125573e-01 -6.4895013217310615e-02 -4.2774754176541231e-02  1.9757834271888958e-01 2.3347744354860212e-04 -5.7043215612701849e-02  -4.8862958095114525e-02 2.3193846425921796e-01 -4.0145370505834763e-02  -7.2883197417748487e-03 2.3953075886454578e-01 -5.2465016520703664e-02  -6.9446165943202340e-02 2.1297906638371675e-01 -4.8375532344041725e-02  1.8513055466280948e-01 -4.8851836699884160e-02 -1.4991133083935989e-02  -2.2082325019431701e-01 2.7701271705328413e-02 -3.1781416393415964e-03  -2.1064345482797883e-01 9.0260922937557345e-02 -6.0931495052202389e-03  -1.7128694412934639e-01 -1.1234443100236766e-01 -1.7548484399395145e-01  -1.4819322600036838e-01 -9.5849353909244525e-02 -1.9233489125431455e-01  -1.3816790173043977e-01 -1.4795721517925170e-01 -1.9017016265539918e-01  1.7215704468170695e-01 -1.2325591614933609e-01 -1.0874870197826382e-02  1.7327395618319852e-01 4.7611819232781238e-02 -2.5891568452615876e-02  -1.9580224708766600e-01 -5.9021469797002228e-02 -4.5990121145621808e-02  -2.0726283245590660e-01 -7.4818018630130895e-03 -2.0732688651204468e-02  -1.9262752103436001e-01 2.3886614558034903e-02 -4.2930857677263998e-02  7.8284311382784411e-02 -2.3912077702011875e-01 1.1720632838272649e-02  -1.8623875195033135e-01 1.3091126379908086e-01 -1.4876566029138661e-02  -2.0091541350213366e-01 7.0300756089518954e-02 -1.9164248060597956e-02  -3.4752860441374295e-02 -2.6533243810305748e-02 -1.8136703928105771e-01  -6.5156738005783171e-02 -6.2002181276585864e-03 -1.8603538082055626e-01  -3.3801081699599993e-02 3.8547479452895758e-02 -1.7157939391624497e-01  -6.8383863580347162e-02 1.7885482733876062e-01 -9.0695946447725273e-02  -1.0868972178353850e-01 -1.8197923092496798e-01 -1.7623632718795576e-01  -6.8695189931857192e-02 -1.9838061914504188e-01 -1.5497602431589005e-01  -1.3175671262101693e-01 -1.8717440027503404e-01 -1.5321116697458254e-01  1.4635772187910503e-01 1.3171244253275460e-01 -3.3415075041413334e-02  1.1324279950784857e-01 1.9009573802736551e-01 -4.6059676979209992e-02  1.2262420915150006e-01 1.7624553254725930e-01 -1.4851554620363201e-02  -1.0170191882129818e-01 2.1291851000189382e-01 -2.0455926949999682e-02  -3.6336003416940849e-02 2.3945146073044282e-01 -1.7369835992211979e-02  6.8554999811149098e-02 2.2459865084826056e-01 -3.6793726328325331e-02  7.2154875366348473e-02 2.3049601338662890e-01 -1.0327322160956255e-02  -5.6462126892908630e-02 4.7151061827505343e-02 -1.7376502916764472e-01  -2.3172608133190772e-02 2.1315338522294416e-01 -8.6428069895588600e-02  3.1957964777041735e-02 2.3965830090529300e-01 -7.0323608795129861e-02  3.0499466600809287e-02 2.4390065986993847e-01 -6.0583900671661119e-02  -2.1324023713046697e-01 -3.6726775495978213e-02 -1.8607626044017287e-03  -1.9932999597623588e-01 -6.9411886162977984e-02 -1.7609505558203925e-02  -1.4897808737153026e-01 1.7412956292493167e-01 -2.2932322623646910e-02  -1.6183992088255553e-01 1.3742071721802129e-01 -3.0744037187090650e-02  -1.1080937729696969e-01 1.9492802604727247e-01 -3.5827416441161553e-02  1.6531641203946824e-02 2.4132760538008993e-01 -2.6741460417032417e-02  -1.9336439117545187e-01 -5.5367961926732955e-02 -7.4039920678443283e-02  -1.8150162097052122e-01 6.0168539783346129e-03 -7.7146481714002596e-02  1.6087825761747509e-02 -2.4729436080172354e-01 5.6451273783578188e-03  -1.2299693102358986e-01 1.6141920410057739e-01 -4.5755519560894527e-02  -1.5748876854783919e-01 4.6566997876745252e-02 -8.9134327468408991e-02  -1.7993879351044673e-01 -2.5939441107922571e-02 -1.1516487014573705e-01  1.4255230924056267e-01 -1.8700553174973433e-01 7.7032659272381508e-03  1.2430040070129549e-01 -1.8853730756964387e-01 -7.4793169339906328e-03  1.7949491122678798e-01 -1.1268012571627409e-01 5.3408521925102275e-03  1.2453804186996395e-01 -1.6049899123848174e-01 -6.1616052450589341e-02  1.7012036106003015e-01 -1.1273001437584895e-01 -5.4662934817500973e-02  1.5583827594491420e-01 -1.3891347623115891e-01 -3.6571729001952914e-02  -1.6291585270088274e-01 8.9588101959490504e-02 -5.1713704040823899e-02  5.9040169546186363e-02 -2.2352765958479831e-01 -1.2076108598302255e-02  -1.6014344765802060e-01 1.7534917716726273e-01 -8.6416136043420012e-03  1.0872160463815376e-02 -3.9029309704784451e-02 -1.7116311504698301e-01  -3.3050436737672960e-02 -8.1231579545666371e-02 -1.8605293354630487e-01  -6.9943647323078215e-02 -2.2622172433324364e-01 -2.3432041492118454e-02  -9.8791591828777350e-02 -2.0992720908743714e-01 -4.5755670311512252e-02  -3.5949934044720376e-02 -2.2647599338517097e-01 -4.5655670705982386e-02  1.5794971433798347e-01 -1.2098631930225488e-01 -6.9742980010181060e-02  1.5744431793398039e-01 1.2503139291379570e-01 -5.2460698676458688e-02  1.8710346502591554e-01 -9.9375924843772504e-03 -1.4038895763760241e-04  1.0407885341274192e-01 -1.5916726590720129e-01 -8.8574868461423734e-02  -7.0964424130699102e-02 -2.1810846904900327e-01 -6.4742855342726557e-02  -1.4873575515227186e-01 -1.7131618418790512e-01 -4.1660834039955442e-02  -1.2853429323676199e-01 -1.9189657366986082e-01 -7.5420865439463691e-02  -5.4918775743165917e-03 -2.3468408217766912e-01 -1.8259928618902663e-02  1.0377206971944164e-01 -1.8755183703746037e-01 -3.3861519316496239e-02  3.2306927389259249e-02 -2.1704220666418350e-01 -4.4266213269217015e-02  -8.6527916503755117e-02 -2.0521479370515572e-01 -1.3166101346272413e-01  -1.8993224500674583e-01 -9.1663893193484169e-02 -1.3139770211493362e-01  -1.8394077765499797e-01 -1.1645271880591859e-01 -1.5401585977939306e-01  -1.7417419383324578e-01 -1.5108682947083293e-01 -1.4387817166938857e-01  5.1902296416998478e-02 -1.9561769018329397e-01 -7.7239249272674643e-02  -1.4255159335033830e-02 -2.1647341476584711e-01 -7.5612830219286623e-02  -1.0562331421389440e-02 -2.0719617496045797e-01 -1.0631710183926790e-01  -1.2774239918586971e-01 1.2428208252652435e-01 -6.7375812905141760e-02  -1.8136996184636400e-01 -6.2679540525703417e-02 -1.4864362422697042e-01  1.1854456713080670e-01 2.0466017848482218e-01 -5.9416763949407765e-02  8.1184405695863882e-02 2.3253146619282775e-01 -6.0917170476796977e-02  1.1541607734342949e-01 2.0121885674408774e-01 -5.9649782825877649e-02  6.2758963049204086e-02 2.3370401589236758e-01 -5.6588074221983371e-02  -2.9009669783836557e-02 -2.0284721522586979e-01 -1.3256046974329988e-01  -1.2378377247888959e-02 -1.9324348004548900e-01 -1.4523202697482529e-01  -1.3300885643750890e-01 8.2759617154232468e-02 -1.0086845164946283e-01  -1.6192450115435791e-01 1.5403234029121275e-02 -1.2192247489992063e-01  -4.0596895480573603e-02 -1.8660765340325677e-01 -1.6830736519113004e-01  1.8995270389222829e-01 -3.4097028796678683e-02 -6.6438853125015976e-02  1.8689753449613739e-01 5.4875459737446633e-02 -5.8717481909503461e-02  1.7958479538627103e-01 8.3651431003246027e-02 -5.6577226611975347e-02  1.7257603677649047e-01 9.0973799175820935e-02 -6.5059634239504172e-02  1.6808496320332636e-01 7.0649202068666386e-02 -7.9923482074207103e-02  1.4939929980163377e-01 1.4573021132374878e-01 -7.4725619061413381e-02  1.8504764962193096e-01 2.5231035559524072e-02 -6.7654785044872948e-02  -1.4703755754663503e-01 -1.8047556007865503e-01 -1.1966587965021040e-01  -1.6420567521804250e-01 -1.5837598460665972e-01 -8.9127076971729099e-02  -1.8537708373086470e-01 -1.2171435009714070e-01 -1.1011042442796444e-01  1.6545810669938144e-01 8.8098906040701350e-02 -6.2851651069552612e-03  -1.8004074067249820e-01 8.7232141895257825e-02 -3.4524734354522683e-02  1.8999500650718138e-02 2.4029663167776441e-01 -4.6383438186583532e-02  1.8786183998089337e-01 -7.0024318267663963e-02 -6.2259251637690277e-02  1.6034776956555186e-01 1.3621324627662143e-01 -5.8470468070242324e-02  -1.6385958237503861e-01 -5.7169499963970714e-02 -1.7039942694686769e-01  -8.3360799401328886e-02 -2.0920570916232331e-01 -9.8158376141580031e-02  7.4126168237050302e-02 2.3810421228406450e-01 -6.2312529179904784e-02  1.5767397363466931e-01 -1.0634878589902616e-01 -7.9791760320039457e-02  8.9273394932894573e-02 2.2750746282507450e-01 -6.6227220050463442e-02  -1.3522582316437146e-01 5.6166889029127406e-02 -1.2974605961375385e-01  -1.1360309121829130e-01 -1.2950019527458601e-01 -1.9716712520500040e-01  -4.9925816851470441e-02 -1.3247855978743694e-01 -1.8577311385250111e-01  -8.0540910380315439e-02 -1.6770051978199643e-01 -1.8753503708392116e-01  1.2569800793292939e-02 2.2326324405595771e-01 -9.0844365787363560e-02  -4.6316286572178032e-02 1.8129522281069868e-01 -1.0871612966079786e-01  -7.7555733509997338e-02 -6.1024574017264230e-02 -1.9364246083150916e-01  4.0384343286095338e-02 -1.8311381912564867e-01 -1.1894014352946528e-01  -5.8890761269577027e-02 9.3307533833424910e-02 -1.6639198249470671e-01  -5.3594789649015422e-02 1.2992365272836059e-01 -1.5114192812000168e-01  -7.0960158060202850e-03 1.5641372875067830e-01 -1.4716795367406776e-01  -1.5931257057554130e-01 -1.5717442802002971e-01 -1.6938578493761366e-01  1.5483994373970697e-01 -8.3201358613942886e-02 -8.9998459180921697e-02  9.8274657704776683e-02 -1.4453469781440431e-01 -1.0877900521923049e-01  1.2956694229587642e-01 -8.1908148515998938e-02 -1.1058620143906010e-01  1.7048828809143152e-01 -1.3874554887870118e-02 -8.4584297364030087e-02  1.5011344563760406e-01 1.5760360575951524e-01 -5.8315339037238040e-02  1.4843498886125120e-01 -6.4284572854046854e-03 -1.0524583090150502e-01  5.9100840316103034e-02 -1.4250735182214141e-01 -1.4345666597747003e-01  1.0437540696325714e-01 -1.2608190540507144e-01 -1.1767536087446917e-01  4.1170333144750638e-02 -1.6851456881528062e-01 -1.3952785076105242e-01  7.8571239071149226e-02 -1.9354095225533841e-01 -5.5114223939726516e-02  4.8616132885512572e-02 -1.8744417139556874e-01 -9.7427609871806292e-02  1.2766461571038154e-01 1.9113452668445677e-01 -6.4811927778286940e-02  1.0119928517365497e-01 2.0720815690814276e-01 -8.3268544859148877e-02  -1.0331053118061427e-01 1.4299266974138805e-01 -8.3215105918905075e-02  -1.0951887790351704e-01 1.1756140324274149e-01 -1.0609590888205629e-01  -1.9070447423983851e-03 1.8524632728109824e-01 -1.2945134479440376e-01  4.7684338126913910e-02 1.6337572257857036e-01 -1.3717120501463792e-01  9.5079728274329423e-02 1.4722989622663310e-01 -1.2381516556094989e-01  5.6780368718750460e-02 1.2081496443072100e-01 -1.4476319530749368e-01  -7.8253286320065535e-02 1.1900638050903492e-01 -1.4118252651758370e-01  -9.5509884820785013e-02 1.2044525506107483e-01 -1.2096114221403434e-01  -1.1764851720247696e-01 5.3172828796263935e-02 -1.5207926808252692e-01  4.5318437900902120e-02 2.1457236439183952e-01 -1.0464967420990706e-01  6.4451380904130509e-02 2.3027525259131873e-01 -7.9650183605157077e-02  9.2281419607268586e-02 1.7636535337714837e-01 -1.1415952471329226e-01  7.2452049985426314e-02 1.8192217414485543e-02 -1.4361352202560640e-01  4.5290276062270381e-02 6.9104367174982320e-02 -1.5027889886669174e-01  8.5643009487591445e-02 7.0098334736783396e-02 -1.4008266683905538e-01  4.0623709598375218e-02 2.9639247724718258e-02 -1.4630076156822877e-01  4.3004050683979785e-02 -6.7656945264845782e-03 -1.5172175125715723e-01  1.0059536145192521e-03 1.3681643879984733e-02 -1.5848575884064961e-01  -1.4618750586002999e-01 -2.9507070559512977e-04 -1.5696318842173448e-01  -1.6317905780089784e-01 -1.1043928642528780e-02 -1.4343290662049582e-01  -1.6678337629867260e-02 -1.6623355090406522e-01 -1.7063072207544233e-01  1.6273685564470064e-02 -1.3939153404747284e-01 -1.6322703552659668e-01  1.4220052855455509e-02 -9.7831580855229819e-02 -1.7089613038970189e-01  -4.0175799606880315e-02 1.6368694811452245e-01 -1.3099073103649281e-01  4.6642720236536851e-02 1.9427154903147956e-01 -1.2351766317159077e-01  8.7002414127145086e-02 1.9859378654087206e-01 -1.0315078291628796e-01  -1.3586127136191145e-01 -2.5419954949404883e-02 -1.8184124145252301e-01  -5.7139577249603873e-03 2.0097446803216293e-01 -1.1159898716373225e-01  -9.6447973375721557e-02 5.8616904171549598e-02 -1.6974159947909659e-01  1.2893131853861201e-01 4.5745563781433678e-02 -1.1919814408461923e-01  1.5032682702970113e-01 6.4347535242898948e-02 -1.0034873557348366e-01  9.3387670027038627e-02 -3.8122717726943582e-02 -1.4145880929714744e-01  5.6667628055141431e-02 -4.6461948752405530e-02 -1.5709452923993894e-01  1.1330812916340094e-01 1.0193812359912370e-01 -1.2237106868491923e-01  1.1338709658087786e-02 -1.7149221113105315e-01 -1.5850570548066181e-01  1.0494681927008578e-01 2.1950507776067496e-02 -1.3431889290670737e-01  1.2481905326981477e-01 1.7170276653458280e-01 -9.0845828522854194e-02  1.3845848501757488e-01 1.2895201056532443e-01 -9.8182201442328629e-02  1.6469721335390802e-01 2.6169661201883361e-02 -9.0747925201193555e-02  1.2568857173411191e-01 -9.4389239460399652e-03 -1.2335626158806773e-01  1.1626160527296628e-01 -6.0359444434223003e-02 -1.2474519710483024e-01  -1.9073717282486372e-01 -6.3390718839440502e-02 -1.0531605757402400e-01  -1.0984790810994537e-02 1.1152566602281405e-01 -1.5794842546861587e-01  9.5457149690152204e-02 -1.0228533622655865e-01 -1.3112581157739481e-01  6.6820730329527719e-02 -9.8558924621223079e-02 -1.4962274702078676e-01  -9.1199228003870481e-02 6.2399980794910189e-03 -1.8547672307551372e-01  -1.1890727655344802e-01 -6.5484614058887183e-02 -1.9730263631293052e-01  -9.2454635366472998e-02 -9.8825509075381082e-02 -1.9656003352160809e-01  7.7959918819352310e-03 7.8033699137995835e-02 -1.5898781889361957e-01  1.7966625665825514e-01 -2.6440824138790339e-02 -7.5869014384161548e-02  -1.1501210847647973e-01 -1.4500905284230717e-02 -1.8703867643019614e-01  -1.2808084317338975e-01 3.0790897496577842e-02 -3.3932503367457567e-02  -1.2153101666307603e-01 6.8650718517348608e-02 -3.4326889227210923e-02  1.0189890847300720e-01 -2.4780924693788033e-02 -4.5567262183550672e-02  1.0102474512925998e-01 -4.3275073039110455e-02 -3.9431587798715209e-02  9.7986058342641666e-02 -5.5886639554291795e-02 -4.9904332676786532e-02  9.4278179397322970e-02 -7.5969920441163741e-02 -3.9298743505685213e-02  -7.1369655971996002e-02 9.4184598031156447e-02 -6.4003017712363539e-02  -7.4129259027545594e-02 1.0777187171619378e-01 -5.2205937496794398e-02  -5.8129779312494828e-02 1.1539061803767689e-01 -5.9615471044156987e-02  -5.8701339436905829e-02 1.2914252336185000e-01 -4.6285008576309794e-02  -9.0897418595219812e-02 9.8769623638264636e-02 -4.5949363366765000e-02  -8.0908433339591107e-02 1.2833456202918450e-01 -3.5142536609650152e-02  -1.1243398414404399e-01 -2.8557490232714231e-02 -4.7604172415626055e-02  -1.2363789734888753e-01 -2.5292142762718201e-02 -3.3080208899835588e-02  -1.1637268837455625e-01 -8.5123267374444707e-03 -4.5332061822003188e-02  1.0390907887994555e-01 -6.5575921813134347e-02 -2.3304716284065739e-02  8.9309292959494982e-02 -1.0754184878725798e-01 -3.1342191820022576e-02  -1.3066706429823438e-01 -1.0179185362725672e-03 -2.8772252419008125e-02  -1.1476264332069386e-01 1.2661069128907338e-02 -4.9539554319845344e-02  1.5158329418372087e-02 -1.2713299196000680e-01 -7.3394458624768621e-02  2.9506265474214203e-02 -1.3122144018266763e-01 -6.2749542048738241e-02  3.4970250860301994e-03 -1.4126508015866224e-01 -6.1293664902045179e-02  1.0041488581019557e-01 1.5194338866790140e-03 -1.7641883670879936e-02  1.0266839271299359e-01 -2.3934361238948602e-02 -2.3175270997992523e-02  9.7390096034874460e-02 2.6547843165291005e-02 -1.0013480762537237e-01  9.5256218666637998e-02 4.8681173424987234e-02 -1.0234053858721329e-01  9.8541539413788889e-02 4.0992190245315162e-02 -8.7250700200382253e-02  4.1760331201920062e-02 -1.1724970736923135e-01 -6.7290798937152216e-02  -9.6352392073545942e-02 1.2515708718981111e-02 -7.3229488874650528e-02  -1.0525895518154425e-01 -1.8732140013890059e-03 -6.4389301613525352e-02  -9.9855696127439442e-02 1.8976235452735350e-02 -6.3416339374668645e-02  -1.0824061582654458e-01 -5.3842648575998884e-03 -5.5063856258618801e-02  -6.2529847115620318e-02 9.5780578281332671e-02 -7.1847613128369250e-02  -7.1500948673890216e-02 7.5862061109195592e-02 -7.3156385819150377e-02  9.4716347132037984e-02 3.7709222968799867e-02 -5.0614192019793176e-02  9.3598856495108448e-02 1.8631993192433024e-0