<?xml version="1.0"?>
<VTKFile type="UnstructuredGrid"  version="0.1"  >
<UnstructuredGrid>
<Piece  NumberOfPoints="625" NumberOfCells="1871">
<Points>
<DataArray  type="Float64"  NumberOfComponents="3"  format="ascii">-0.01867198730429443 1.441250943770818 -1.07058195961044e-15  0.046678177792024 1.802459730719775 -1.037095223015432e-15  -0.6058201170110272 1.528397690380693 -1.111664806242586e-15  -1.134934009788355 1.35200586200629 -1.118565023277944e-15  -1.573401187478483 0.9851799924002934 -1.108826022376011e-15  -1.772547286459068 0.4516061631358046 -6.420571986876447e-16  -1.719612156116764 -0.1151937808945505 -6.452051886718107e-16  -1.433954794604708 -0.617837285711997 -2.04025513385007e-16  -0.990880640339881 -0.99154573456452 -2.250769892047044e-16  -0.4391962422944511 -1.176592061767966 -2.191422393264366e-16  0.1437976512531354 -1.105749113532368 -2.148626609121717e-16  0.6868738477410232 -0.8734641414432731 -2.060339130099939e-16  1.114347817190202 -0.4871439347346391 -2.349952191292178e-16  1.349295889869593 0.01582669197803238 -6.737776909010585e-16  1.33334001032164 0.5626673356455633 -6.846750807820448e-16  1.035064679246687 1.026543813146247 -1.100714966553528e-15  0.5643751488271376 1.334990659515189 -1.102089862038728e-15  -0.545822592948271 1.790736898399691 -1.057901628823053e-15  -1.110083740198306 1.646453789358196 -1.005207174903871e-15  -1.599418780180507 1.324873823777551 -1.002800428288807e-15  -1.995675411157195 0.886350204819695 -1.060100557383033e-15  -2.241654825401532 0.3353497085544386 -6.03236432340231e-16  -2.314401804384506 -0.2758072775344036 -6.137866805440845e-16  -2.158392115459517 -0.884390609769428 -2.465621410330942e-16  -1.802838614911941 -1.406780055067139 -2.056402451197496e-16  -1.315708048059093 -1.813435168797982 -2.088868842724071e-16  -0.727861030842865 -2.058282524137706 2.323802357229902e-17  -0.09441466928373896 -2.137793608495464 1.022791066134775e-17  0.5373757027362294 -2.051108234431706 -4.256036418067483e-17  1.122550658772171 -1.800577124736974 -1.711695521475143e-16  1.63446598980648 -1.42555153032346 -2.103517585314951e-16  2.046829166777631 -0.9417685944420821 -2.219903190880533e-16  2.334507815984175 -0.3752848168727708 -6.489336289233391e-16  2.447485772059253 0.2622203726914053 -6.654325015036477e-16  2.28174912668467 0.8886643735329922 -1.126933631345011e-15  1.866982320820125 1.393255705932956 -1.074223216848617e-15  1.288537703196747 1.694873279178885 -1.092318173164138e-15  0.6596466621550892 1.804092662133143 -1.070386015230747e-15  2.085341763039526 0.5579652806357219 -1.692515527496175  2.07984315449189 0.4709488870792297 -1.134594882448482  2.21780910024726 -0.09122534897488632 -1.494663686187808  1.889924425789941 -0.5790832553550457 -0.9140673748939807  1.594567348557499 -1.189707790266044 -1.177107796956185  2.021104233632119 -0.7361143551850978 -1.464208752356827  -1.126716122350848 -1.385981208209711 -2.982565722802977  -1.367823630269883 -1.389840367664983 -2.149457281410887  -1.675602943533859 -0.9529031119422973 -2.658271237163442  1.086761615571925 1.539450508422606 -1.219709871073453  1.444661264365528 1.318194276229327 -1.517218729529798  1.029831943752233 1.504855484682245 -1.78489804719796  -1.135112099634456 -1.461530533412473 -1.020757052379249  -1.596985410600891 -0.9984732228367504 -0.7914452381984036  -1.582501152531332 -1.209117674579032 -1.482522469853861  -2.096403112061077 0.5349760975377545 -2.821644609576881  -2.078977411166691 -0.004115802483546982 -2.785512923297443  -2.157907899537249 0.2649431268804636 -2.216893072148297  1.391750317631357 1.326938788073624 -0.9375369798449364  -1.590519997394843 1.198038066547262 -1.912350764468663  -1.940795009747997 0.7827985717065137 -1.921952885867874  -1.834913151989583 0.8797786039174436 -1.257219277846404  -1.923665884523487 -0.7307161842581239 -1.241212597806704  2.035050112569515 0.04575166350675988 -0.9083772729309537  1.777735098288361 0.4557010620670965 -0.5513016919689175  1.752531761098319 -0.1004419018092982 -0.5150093460729667  -0.3555385723225582 -1.857847159445853 -1.749740013903186  -0.3771820410348584 -1.84870824763003 -2.383832612403576  0.1300965725073463 -1.924391533584478 -2.129707538048699  1.858655113520516 -1.103122729761732 -1.881462903587438  -0.8850999442433976 -1.655047011351878 -2.487428284600008  -0.5322752476692564 -1.71566858681715 -2.981307942440429  1.415599698022488 -1.468933860786457 -3.192520967772269  1.938307808392003 -0.9569284005700069 -3.006130561700416  1.617595552656492 -1.36449882706335 -2.458644671431564  2.264834423970417 0.4105821960078053 -4.069530785783353  2.233402656395305 0.60977414780557 -4.862844969058372  2.033247735304494 1.002903625817128 -4.158618528267905  -1.96953999055801 0.09374706268558151 -0.5773549465285511  -1.848307916158078 -0.4800173968493577 -0.6463060920071774  -2.062635168612923 -0.1752001517402702 -1.111070793101177  1.320020032381769 -0.8615379692207207 -0.504987493769113  -1.686322633819052 0.6023709140574143 -4.251753561526102  -1.868880405590996 0.6204382466356299 -3.792664011314903  -1.684811936924603 1.051300480634597 -4.032756874414205  -1.468963872503821 0.3222166913113584 -4.614668419296649  -1.045268202411419 0.01056922404293548 -5.100289442815801  -1.33987241811034 -0.248298603784774 -4.399253939530507  -1.915493086293707 1.025430881432982 -3.280575327870106  -2.023957347166793 0.3893910843177925 -1.160855865141323  -1.899959691073066 0.6715114353787329 -0.6541786833228015  -1.62146053872665 1.219140064221737 -0.6150901127614773  -0.3215235813629214 1.852504227491089 -3.861638184300793  -0.4176662825968886 1.806175371372093 -2.97584266199515  0.1935350113392348 1.739207853265772 -3.316589221282181  0.1590495116544995 1.684707698051675 -2.612791283496743  1.782987701180089 -0.9000064136136096 -4.29322643624903  1.290428477153895 -1.095749150673684 -4.660252836115327  1.6223932994993 -0.7694109702477783 -5.017980805016848  -0.754403468461369 -1.69729104643023 -1.333873436088836  -0.7348960217551936 -1.460999526215335 -0.6120424472565583  -1.919204223083346 -0.7742657797844821 -1.946716035207698  -2.076790492275517 -0.3928777144706049 -1.576340593923751  1.354283595268029 -1.309943163835402 -3.997131665246702  0.4065309792111459 -1.69362863646019 -3.636741421640334  -0.114760703086285 -1.702638243634864 -3.495218204113423  -0.06000163968130652 -1.445332043531229 -4.132310988514608  0.2738769203105705 1.799585745599126 -0.6952141158951251  0.8364779979930815 1.623660270786616 -0.7371460567962277  0.5236668758253574 1.720154733425548 -1.333275907172077  -0.8125352060728362 -1.714422340175539 -1.954799606466948  1.76829923748076 1.020378632331586 -1.770346081234906  1.92278404252614 0.7762044179738158 -2.380300867302504  -1.526988263672555 -0.9280097384014026 -3.17779506676596  -1.827341503840584 -0.5279927104003834 -3.053368611964257  -2.026115927762661 -0.4060112639826843 -2.4277900645015  1.807959750870427 0.9751222567977393 -1.15787928188479  2.197171765206568 0.08352021385529841 -2.294949967761268  -2.127111356034086 0.02189621643409245 -1.656404445585349  -2.045903335623869 0.4764202666240159 -1.648988928599136  -2.118765763158188 -0.2814222123822094 -1.999813620005239  1.497883121505008 0.9050676723565315 -0.4611360326741977  0.07944606198358278 1.680568098459774 -1.893103277958845  -0.4715057624826567 1.669428788660847 -2.168983711712822  -1.178535106399807 -1.524264621935521 -1.595566609739127  -0.1733633515342226 1.798938856478072 -1.303631409704646  -0.2417828089926954 -1.783620493042002 -1.098197406708099  0.7141032997610668 -1.44473239314048 -4.257091113726645  2.128500681554915 0.6906133441558342 -3.629686088266616  -0.620264248095727 -1.487595095418211 -3.612476002088642  0.5705339628150226 -1.411956328800643 -0.6165589238896523  1.067820653543669 -1.228464591794407 -0.675334747248674  -1.218817427395908 1.576143204071742 -0.7971275267287652  -1.502014969930319 1.298228401325484 -1.205621351737863  -0.04158251496033714 -1.526784151172113 -0.585725138512039  0.05957191816853057 1.70585571694363 -5.208140506607164  -0.5211591758800384 1.592680906891827 -5.176223441944204  -0.2628435617593461 1.820498404844856 -4.675120426033315  -0.2628791029970042 -0.9660429038537839 -4.792832672565262  -0.6852822346314619 -1.112798720723703 -4.199580176643046  1.123207984444023 1.347947590907031 -0.4873903159766356  0.6603323905418048 -1.853337059291697 -2.487932478621607  0.5781263385433667 -1.8808828342327 -1.856598719801505  1.099520478112954 -1.721005501869497 -2.177535989226202  -1.871431010422506 -0.1555925339477016 -3.394252931450441  -1.539261236221267 -0.5555638014157023 -3.696553062165785  -1.125768409862192 -1.10143372806272 -3.642976092034179  -2.029438056563485 0.3375830092033762 -3.35428104565016  -1.220685397782387 -1.139679485033272 -0.4770730813312313  -1.088178333137587 1.655875582706065 -2.695979308082491  -1.027623407614185 1.358686448618334 -5.000150082017424  -1.237306846207464 1.481221366169005 -4.320299168448139  -0.7465994318211074 1.721136483012764 -4.513741988026067  1.478118568130572 1.210776696061724 -2.199325844160466  2.157919405416379 -0.5474725493131701 -2.070897959775512  -0.3649793273054271 1.844461709445604 -0.5812743073704154  -1.140003369317105 1.521627520922906 -1.400108016315561  -1.948640120362253 0.9145437836534333 -2.487885414222406  -0.9067245716511798 1.746356147819833 -3.924326691984103  0.08399139563130786 -1.898326707075793 -1.594036633309917  -1.161780896563809 -0.7502570569846454 -4.132647463020616  0.4485480255207304 -1.765924209575352 -1.174334281369487  0.9469759346985906 -1.753241537980459 -1.608379964581852  1.416831634681146 -1.521489079973338 -1.800499418878588  1.078390953894387 -1.562721132447089 -1.138640967940224  -0.4526258168191816 0.79986736519011 -6.096964480904818  -0.2111283490064025 1.150674333997933 -6.08414038791477  -0.03637944340547117 0.830048264707039 -6.487332122345678  -0.8075276680345029 -0.5894424008682885 -4.7975720
[...]
<PointData  Vectors="f_3103411-0"> 
<DataArray  type="Float64"  Name="f_3103411-0"  NumberOfComponents="3" format="ascii">4.1036382260533112e-02 5.1273440278311333e-01 0.0000000000000000e+00  3.5221386377104112e-02 4.7409921618102341e-01 0.0000000000000000e+00  -8.4411520398507162e-02 4.9739311841472778e-01 0.0000000000000000e+00  -2.1406273459271719e-01 4.0637646774542630e-01 0.0000000000000000e+00  -2.9141659471909198e-01 2.6873649679783490e-01 0.0000000000000000e+00  -3.4543759181105516e-01 1.1868736820692335e-01 0.0000000000000000e+00  -3.6968693986939438e-01 -4.4542885730049719e-02 0.0000000000000000e+00  -3.5757853526040506e-01 -2.1409552962785122e-01 0.0000000000000000e+00  -2.9433310070968671e-01 -3.6645292034046212e-01 0.0000000000000000e+00  -1.8111842830239380e-01 -4.7036027716134188e-01 0.0000000000000000e+00  -4.2044031462271002e-02 -5.0052931214725904e-01 0.0000000000000000e+00  8.2604828764869048e-02 -4.4416212886836326e-01 0.0000000000000000e+00  1.7402747853391620e-01 -3.1690197529357866e-01 0.0000000000000000e+00  2.2731130995848242e-01 -1.4780139958716049e-01 0.0000000000000000e+00  2.4571359684680544e-01 3.8426824511277546e-02 0.0000000000000000e+00  2.2185885323743640e-01 2.2973093690307866e-01 0.0000000000000000e+00  1.4786392448196758e-01 4.0535666583987623e-01 0.0000000000000000e+00  -8.8129645756024361e-02 4.6775049314289857e-01 0.0000000000000000e+00  -1.9080379224886512e-01 3.9018939852269491e-01 0.0000000000000000e+00  -2.5634235951994300e-01 2.7464564995992985e-01 0.0000000000000000e+00  -2.8340865296960699e-01 1.4832388884278241e-01 0.0000000000000000e+00  -2.8187289546643235e-01 3.6186134117103787e-02 0.0000000000000000e+00  -2.6652778207699190e-01 -5.5317905296240484e-02 0.0000000000000000e+00  -2.5542146905427987e-01 -1.2990127582040040e-01 0.0000000000000000e+00  -2.4170883976412097e-01 -2.1131360384741277e-01 0.0000000000000000e+00  -2.0357644877533887e-01 -2.8709125338572339e-01 0.0000000000000000e+00  -1.4258214216110318e-01 -3.4118438989420802e-01 0.0000000000000000e+00  -7.2868026647162423e-02 -3.6767127006599709e-01 0.0000000000000000e+00  3.9315259658101480e-03 -3.6181596115053427e-01 0.0000000000000000e+00  6.8821779165916988e-02 -3.1822696408487250e-01 0.0000000000000000e+00  1.1044777059412314e-01 -2.4843614440267928e-01 0.0000000000000000e+00  1.2494711391013204e-01 -1.6930596774426332e-01 0.0000000000000000e+00  1.1998705311992230e-01 -9.0531275429912073e-02 0.0000000000000000e+00  1.1227342100769518e-01 -3.7197925120633038e-02 0.0000000000000000e+00  1.2578095448493687e-01 1.2754972537868137e-02 0.0000000000000000e+00  1.5483471579976885e-01 9.5942340703541393e-02 0.0000000000000000e+00  1.6790153578575401e-01 2.1591967524998823e-01 0.0000000000000000e+00  1.3115828063059340e-01 3.6371620847757236e-01 0.0000000000000000e+00  2.8902670174755807e-01 9.4159399652509898e-02 -9.9906671531880931e-02  2.6373524318878155e-01 3.6543802547247636e-02 -4.1908395135024382e-02  2.7139953247754589e-01 -6.7218291454753984e-02 -7.7352028710095250e-02  2.3584219978573148e-01 -2.0624689689593431e-01 -7.9664153953780559e-03  1.9493824569920454e-01 -3.2673611898253224e-01 -3.8866947807646282e-02  2.5029971244911564e-01 -2.0866004080728467e-01 -7.1154868576770072e-02  -2.6223826718508042e-01 -4.0635955284507236e-01 -2.9463760606149475e-01  -2.8707747747484358e-01 -3.7268055121007004e-01 -1.9303235839179367e-01  -3.3099716030265747e-01 -3.0006783193344455e-01 -2.5348595020669545e-01  1.9650800009132641e-01 3.6947987858915965e-01 -7.4218037012497504e-02  2.4167877249735639e-01 3.1161599536964835e-01 -9.4671771963986073e-02  1.9724905880327018e-01 4.2197307527550004e-01 -1.2533537238089515e-01  -2.6083250193018342e-01 -3.8953303216822061e-01 -5.2410200039055818e-02  -3.2757590812967674e-01 -2.6600107142271401e-01 -2.9978725731086779e-02  -3.1195492571612571e-01 -3.1001952735621013e-01 -1.1129962320076044e-01  -3.0802251086422677e-01 2.4045898485030193e-02 -2.3195825516351831e-01  -3.4158707784703568e-01 -9.5126158524946283e-02 -2.4541139562609859e-01  -3.2649489052685615e-01 1.6786082885344471e-04 -1.8226273882331495e-01  2.2775841497296548e-01 2.7040034799357282e-01 -3.7058866141696879e-02  -2.4772624957037812e-01 2.6489446291329316e-01 -1.4324313312473941e-01  -2.9741692084014648e-01 1.4252802675839918e-01 -1.4740101413314613e-01  -2.9487266997451056e-01 1.8096341470806040e-01 -9.6856745899966193e-02  -3.4042796332138198e-01 -1.8459244280432008e-01 -8.4521754005105684e-02  2.5811039581783474e-01 -6.8840919580835561e-02 -1.1508724444098554e-02  2.5564624432727695e-01 1.6914665670031116e-02 1.5910940953224047e-02  2.4820263691920866e-01 -1.2593267533304806e-01 2.6053673784250112e-02  -1.3152260310586944e-01 -4.7829558299689351e-01 -1.3428276590661700e-01  -1.3133982847300216e-01 -4.7974301984203538e-01 -2.1233034461768630e-01  -4.3786960935463103e-02 -4.8614088874484468e-01 -1.7579597727519108e-01  2.3851074617286849e-01 -2.7679726301207042e-01 -1.1893658445565268e-01  -2.1672675691833845e-01 -4.4259413009301524e-01 -2.3107422825719151e-01  -1.5822933749539020e-01 -4.6408404371895823e-01 -2.8590653549251177e-01  1.8970412520555396e-01 -3.4943793575266202e-01 -2.5794661240144273e-01  2.7016965440376256e-01 -2.2286191170729125e-01 -2.1809429456971344e-01  2.1747490008136650e-01 -3.3163978876333128e-01 -1.8463403527960165e-01  3.0658138107442673e-01 8.8924431928900649e-02 -2.5753474764307110e-01  2.9483545611644008e-01 1.2816678019052249e-01 -3.1364098626559761e-01  2.9474932357544709e-01 2.3697967641578691e-01 -2.5819243592125424e-01  -3.4745581913380674e-01 7.8035844608050865e-03 -2.1862327944245533e-02  -3.5354943067379124e-01 -1.3658532950887489e-01 -1.9170328045475402e-02  -3.4652462823765734e-01 -5.7029806384255977e-02 -7.1896510350149850e-02  1.8984176431735042e-01 -3.3319559632344653e-01 3.0477774620292060e-02  -2.7273419229048962e-01 -2.9650135008688440e-02 -3.6141431343769898e-01  -2.8682634835998078e-01 -8.6346939072138619e-03 -3.2262523948917204e-01  -2.4054148110544865e-01 8.4215468854814846e-02 -3.1955962347142081e-01  -2.7205486618594754e-01 -1.0374135042777285e-01 -4.1106804126667318e-01  -2.3832777162431121e-01 -1.8081600707950438e-01 -4.7109726104170030e-01  -2.9438759365531586e-01 -2.2923037065098956e-01 -4.3111682778062166e-01  -2.6104963581324775e-01 1.0619308935682013e-01 -2.5874926087377453e-01  -3.3112989360735173e-01 6.9085716204339662e-02 -8.1428792361266003e-02  -3.1626571703806033e-01 1.3607441003382512e-01 -3.7247338001156989e-02  -2.6025824365168299e-01 2.5948041648465936e-01 -4.3471594350636543e-02  -3.1696085946071796e-02 4.4696263460055341e-01 -2.6504204515959084e-01  -3.4245974407204789e-02 4.7575535418213694e-01 -1.9511627648466534e-01  7.2709600831515162e-02 5.2255640343017495e-01 -2.0994527582029060e-01  6.5350606791137605e-02 5.2438046455466625e-01 -1.7149230211866789e-01  2.4353954970669447e-01 -2.1929938733851786e-01 -3.3048707727397797e-01  1.6797436323798706e-01 -3.0401400798296102e-01 -3.8978915389350349e-01  2.1748712852888796e-01 -2.2280320658065383e-01 -3.8509650704110132e-01  -2.0010541343415741e-01 -4.4723473095168276e-01 -8.5486810814623823e-02  -2.0915607410195081e-01 -4.4565886412244859e-01 -2.8862302808296343e-03  -3.4218211694513112e-01 -2.1977096761347195e-01 -1.6665877823604688e-01  -3.4468271626961849e-01 -1.1616956340413895e-01 -1.2267330274108382e-01  1.7976262463380685e-01 -3.2554768731752498e-01 -3.3510670048838187e-01  1.4302968712782567e-02 -4.4238587188283346e-01 -3.3913129867430913e-01  -8.1718786085896750e-02 -4.5971461513256612e-01 -3.3730396857011141e-01  -7.7506188807354368e-02 -4.3278191357008011e-01 -4.0899475153157738e-01  7.7446724999657990e-02 4.4830664679193871e-01 -3.6070630062089777e-02  1.6196523107605676e-01 3.7947906432483514e-01 -2.8627841418965315e-02  1.1462772421753310e-01 4.6197501553479142e-01 -9.7423293707185041e-02  -2.0684103977073823e-01 -4.4979122216491596e-01 -1.6429079884040157e-01  2.7652528690925599e-01 2.3353744829648074e-01 -1.1063327399500014e-01  3.0277308812241188e-01 2.0014753191488702e-01 -1.5148407454219248e-01  -3.1983182518576370e-01 -3.2012301584710762e-01 -3.1729102161750888e-01  -3.4659295432118248e-01 -2.2710729054869205e-01 -2.9339227172805654e-01  -3.4937045126648486e-01 -1.6383509574755253e-01 -2.1826544822112792e-01  2.5807524387948849e-01 1.6675780976996557e-01 -5.0191305735099410e-02  3.0754358463970094e-01 1.1056355176449879e-02 -1.4615070062687666e-01  -3.3981383832298911e-01 -2.5043667878903452e-02 -1.2912914032175371e-01  -3.2353068973102628e-01 7.6889134904956732e-02 -1.2732813578823993e-01  -3.4490251905171332e-01 -1.0743901211025532e-01 -1.6871952998037459e-01  2.4910652520213716e-01 1.5167960549788945e-01 1.9830869316087858e-02  4.2574348180880073e-02 5.1131922299302501e-01 -1.4232937780924709e-01  -5.5837913718588622e-02 4.8156718675281746e-01 -1.5083370173735974e-01  -2.6075194777384053e-01 -3.9601150359454329e-01 -1.2289933289264729e-01  -7.8661332529776449e-03 4.7845623124580744e-01 -1.0571776771377144e-01  -1.1343714334687355e-01 -4.7935096095690022e-01 -5.1331043809086374e-02  6.8828731495339079e-02 -3.9173865223235194e-01 -3.8885057540470103e-01  3.1015424754973986e-01 1.6954579936135583e-01 -2.1961647114901392e-01  -1.7806503587204639e-01 -4.3714692156763085e-01 -3.6221358660907460e-01  4.9633153186736320e-02 -4.7670751906658387e-01 1.7199993962845172e-02  1.3642797864234946e-01 -4.0717843581710766e-01 1.3882320787958433e-02  -1.9433357193108353e-01 3.5164739923791666e-01 -6.5426527363457998e-02  -2.4215731987265224e-01 2.8890666457855380e-01 -1.0054603831043829e-01  -7.3645041408665277e-02 -4.9784921455044262e-01 9.0687109502410636e-03  -2.5790102263703391e-02 3.6859535504785051e-01 -3.8321439891320569e-01  -1.0821591331343039e-01 2.6157596199795768e-01 -3.8349262383637583e-01  -5.4064282851896350e-02 3.7840640935627617e-01 -3.3875170980906527e-01  -1.2984324326039393e-01 -3.8231322687457259e-01 -4.7450141790576428e-01  -2.0032640313836933e-01 -3.9770761652817521e-01 -4.3152038896937966e-01  2.0692530594145633e-01 2.9462632584047860e-01 4.7794932789576019e-03  5.5742821857355462e-02 -4.6194845896521064e-01 -2.0951083790811897e-01  3.1793831933462434e-02 -4.6924369029276214e-01 -1.3702761242937364e-01  1.2781977348131837e-01 -4.2170116231920013e-01 -1.6804373645760351e-01  -3.3982154436746986e-01 -1.6457587731852805e-01 -3.2094545668618446e-01  -3.2530712912999188e-01 -2.6806991023296028e-01 -3.7240413703101233e-01  -2.6990495491487326e-01 -3.7668417897063433e-01 -3.7359155828913343e-01  -3.1295845039928116e-01 -5.0177972280032311e-02 -2.9138879190597855e-01  -2.9875079957431311e-01 -3.5053566423882182e-01 2.3547787663500703e-03  -1.5042963047978036e-01 3.7345382918483971e-01 -1.8391187622318422e-01  -1.6523846607293141e-01 1.5586852925163031e-01 -3.7421442913266550e-01  -1.8236540221802539e-01 2.0358154747458312e-01 -3.2479816889965335e-01  -1.1998722645672784e-01 3.0466976805813267e-01 -3.2970344624688874e-01  2.6196222498869559e-01 3.4513945085192749e-01 -1.4574627006525845e-01  2.8358083658571792e-01 -1.4177407602213146e-01 -1.3207187680694596e-01  -3.5291185881800823e-02 4.5670021320999959e-01 -3.8433209913568758e-02  -1.8321055287200871e-01 3.7103585555767771e-01 -1.1607583962434322e-01  -2.8287939224316339e-01 1.3710719438447153e-01 -1.9195980202092019e-01  -1.2792151215100289e-01 3.3411326334083963e-01 -2.8427441566229805e-01  -5.5946064294998696e-02 -4.8409847004215956e-01 -1.0938013382033365e-01  -2.7779834860516989e-01 -3.2563238817405876e-01 -4.2286757215399118e-01  9.1080708967315044e-03 -4.7716074299254008e-01 -5.0204446331290557e-02  9.1423764634616544e-02 -4.3671246758185212e-01 -1.0274817253068187e-01  1.7213854515792054e-01 -3.7486691968361402e-01 -1.1848200844757986e-01  1.1420067116435087e-01 -4.1761219604743732e-01 -4.1387827357744524e-02  -1.3266553797762481e-01 4.1028246290090560e-02 -4.5645051675008819e-01  -1.0530568661740906e-01 1.5283240111332061e-01 -4.4148071355799245e-01  -9.6027243646674892e-02 7.3194453167905904e-02 -4.6334604268254220e-01  -2.2444854887095764e-01 -3.1214226894142233e-01 -4.7709749374221760e-01  -2.2911875268459500e-01 2.5425984353742198e-01 -1.8737393824542051e-01  -1.6775006681840463e-01 3.7960644030796165e-01 -1.4989339018342412e-01  -1.4532194296328368e-01 1.2000293835923062e-01 -4.1925281919556173e-01  3.1162715486505871e-01 1.9857535561523162e-01 -1.8444092021522537e-01  2.8164320356965461e-01 3.4212927483021882e-01 -1.8145303522586667e-01  5.7831123708143098e-03 3.4951706142618300e-01 -4.1602520424771294e-01  -7.9590671472004312e-02 2.5739152913798308e-01 -4.1978165079022628e-01  -4.4720101780384575e-02 2.1999711357555926e-01 -4.4435004883563683e-01  -1.3540442257187799e-01 4.1574755992504053e-01 -3.2045686084821626e-02  1.6709956513189578e-01 5.0823837300896046e-01 -1.8588843498140084e-01  2.3576067014501748e-01 4.3636621398588449e-01 -1.7395738438511146e-01  1.8294907068045360e-01 4.7821266972725801e-01 -1.6108708236937272e-01  2.9846373054394293e-01 2.7454104734024637e-01 -2.0878095592140855e-01  2.5683297613809902e-01 3.8463368641327317e-01 -2.2724423043628295e-01  -1.0807117384695827e-01 4.4683094462710604e-01 -1.2656469656566419e-01  -1.1175694487024071e-01 4.2723233193097865e-01 -8.6740847453368727e-02  2.2582653261476821e-01 4.5488345811579112e-01 -1.9636275357300781e-01  1.5508901792710356e-01 4.9760682479468177e-01 -2.3568177464098536e-01  -1.2000431498574880e-01 3.7493534989524580e-01 -2.3582779754488778e-01  1.2342402434723440e-01 4.9878190222945240e-01 -1.4657011537200235e-01  5.6593613133804422e-03 9.3537411101144538e-02 -4.5561897951313346e-01  -5.4566188398432455e-02 1.0320588852674073e-01 -4.6489876842935668e-01  8.9144029610487572e-04 1.8868105285160380e-01 -4.5553947022387725e-01  1.0356806056837989e-01 3.8967123404372356e-01 -4.0015849415729493e-01  4.8422948979733663e-02 3.0218349443958270e-01 -4.4111715408889590e-01  2.4176962307468175e-01 -2.5386454967961175e-01 -2.8180839907393290e-01  2.8100446609817353e-01 -1.5850814987783127e-01 -2.6170205954808040e-01  -1.9940743106639683e-01 2.2160201729202758e-01 -2.7893014318556308e-01  -2.2074333734975235e-01 3.7946869509700894e-02 -3.7050177513526461e-01  7.2991882227748467e-02 4.3037892291464180e-01 -3.7040538276962481e-01  2.0205071868316016e-01 -1.2086909305907792e-01 -4.3880738022126636e-01  1.9885079663591201e-01 -1.9619499480936317e-01 -4.2014677263447320e-01  1.3268582788839506e-01 -2.2861705797358770e-01 -4.6224331450327616e-01  1.2944465767318217e-01 4.6336595299212585e-01 -3.0988635814690424e-01  1.9951080230666274e-01 4.3651702353275973e-01 -2.7668232297444290e-01  1.7529985612089974e-01 4.1135703096329651e-01 -3.4614840101672234e-01  1.3387437820164402e-01 -2.9803013772000969e-01 -4.3136566400877530e-01  2.8895879948885772e-01 -3.2049451123246253e-02 -3.3254142185385382e-01  3.0395818285620674e-01 4.5676152726143813e-03 -2.9168170281116290e-01  2.9832921166792481e-01 -1.1763556935589002e-01 -1.7450287112418897e-01  -3.1888044257760662e-01 -1.3276535185874261e-01 -3.6236775321549258e-01  -3.8598003626745862e-02 -4.7577376877196770e-01 -2.6414582801907394e-01  8.8290549771463792e-02 -4.3406628542714570e-01 -2.7503388266101236e-01  -2.0138211148803981e-01 2.6025631506150332e-01 -2.3086799295782176e-01  1.4134356937040710e-01 -4.1256300097357029e-01 -2.2013623741602609e-01  2.8787335538215486e-01 -1.1094689361026061e-01 -3.0048298733858625e-01  2.2960803430452531e-01 -2.2729745596289552e-01 3.2285212628205301e-02  2.7096469442111493e-01 5.0267615962259933e-02 -3.6435496452803923e-01  2.4957789308097048e-01 3.4749722826252361e-01 -2.9149267136785023e-01  1.5909517865143966e-01 1.1751027414335515e-01 -4.4120064688213356e-01  1.8061693856149610e-01 -1.0174996833611673e-02 -4.5918610560127843e-01  9.8844409801809377e-02 2.3107484668102349e-02 -4.6993290711664409e-01  2.6468273922472457e-01 -1.3998866013201372e-01 -3.4609847309126707e-01  -2.2318068271341623e-01 -5.5472775067054218e-02 -4.2756782309903335e-01  -1.7805198924060509e-01 -4.6212063145320698e-02 -4.5868615723205874e-01  -1.4699461150000742e-01 -3.0514580919372686e-01 -5.0123017450195739e-01  -6.8260224560258223e-02 -3.3882842746776060e-01 -4.9217280362792681e-01  -6.5986583299453935e-02 -2.4456396525446167e-01 -5.0445286515884857e-01  4.9278138169831710e-02 -1.9171751736097625e-01 -4.9851131026127071e-01  3.5440476945387475e-02 -3.0223356989921585e-01 -4.7771687385926209e-01  1.3091576972951616e-01 -1.1951397665020914e-01 -4.8800021797490067e-01  1.3989798222039126e-01 3.1014601112247303e-01 -4.2472087774668221e-01  3.0488177837632185e-01 -4.9281643953201892e-02 -2.4846994159788621e-01  2.1292153811607717e-01 2.7050457411472145e-01 -3.9401840058583459e-01  1.8430564294192095e-01 3.5768771518791798e-01 -3.8042503503636593e-01  2.4806877704067259e-01 2.9697539141834423e-01 -3.4133548225112686e-01  4.3331718086574211e-02 4.6476009057711803e-01 -3.0942470359247737e-01  6.7503717694095244e-02 5.0834753404316801e-01 -2.4627134261012304e-01  3.1401140968584379e-01 6.1134349132980860e-02 -2.1211113459410841e-01  2.3382221881494386e-01 1.3332560990207557e-02 -4.1214716434582832e-01  3.0641960162814380e-01 -5.8757037248055533e-02 -2.0137904645232854e-01  1.1728211666381892e-01 -3.9114904476519696e-01 -3.2688599922549960e-01  2.7153563657258856e-01 -2.1435519740743916e-01 -1.7046502919323867e-01  2.5314112906138603e-01 -1.0130437332388666e-01 -3.7961643647604637e-01  7.6155279873856029e-05 -3.6738636855705142e-01 -4.6729018280025386e-01  -1.8711147283035034e-01 3.6730162872562179e-02 -4.1084501216847896e-01  -1.1475000890375076e-01 -5.7047484901887581e-02 -4.9245592719982961e-01  -1.6234754833938186e-01 -1.8394931319401672e-01 -5.0084840557968879e-01  -2.9155496678538766e-02 -4.0640631702688551e-01 -4.4369723248255416e-01  7.7261204575462969e-02 -3.5906617707301330e-01 -4.3320106585642310e-01  2.8074261318306726e-01 2.4997318290735851e-01 -3.0435005314331631e-01  5.5082139208735802e-02 -7.3531172758274851e-02 -4.9775654104720807e-01  -3.1542013758500853e-02 -1.2422844966105941e-01 -5.0750062385963002e-01  2.3468175966125485e-01 1.4202232467160178e-01 -3.9755653924886608e-01  2.6094859452679964e-01 2.0076275279890243e-01 -3.5881605659400961e-01  3.1802048677000000e-01 8.1118682142584747e-02 -1.7497363965651380e-01  1.8306050769694615e-01 2.1548668562120143e-01 -4.2741812060182932e-01  -3.6496050806107558e-02 -7.3996494669710472e-03 -4.9509764462060507e-01  8.7439502319493892e-02 2.1580095043051334e-01 -4.5665344741175723e-01  -1.9927683858729719e-01 -2.5837866294139106e-01 -4.9540341132996862e-01  -9.8361766997586975e-02 -1.4991695818739853e-01 -5.0607171890058278e-01  8.1274348235287355e-02 1.3361117119953739e-01 -4.5295061891110311e-01  -3.3472013344575204e-02 4.0460353617490308e-01 -9.1766354114459117e-02  -1.2170451379678177e-01 3.6047267577904407e-01 -1.0421556768868954e-01  -5.5047393519876087e-02 3.0847941042388921e-01 -1.3775900260609031e-01  -3.8241213227554936e-02 3.3584700806753742e-01 -1.2083203373434299e-01  1.4512022487026760e-02 3.3314141235538919e-01 -1.1967828807326189e-01  -9.8799730806682279e-02 3.0097286988401889e-01 -1.3356926041781372e-01  -2.2528088782907477e-01 7.4938970366400209e-02 -9.2459231848998527e-02  -2.2832830060805132e-01 1.5294850167390314e-01 -9.4123177194207652e-02  -1.1006442063423155e-01 2.4991139689294339e-01 -2.1155583083898322e-01  -7.1816513140039631e-02 2.9831146682023746e-01 -1.6381696990685060e-01  -6.3113716093423936e-02 3.0818940309630527e-01 -2.1566314804581271e-01  9.3968576436309903e-02 8.4272983760046577e-02 -4.1899458262819250e-01  1.2183339421537975e-01 5.0374378839318355e-02 -4.4058198060593573e-01  1.0194261364225077e-01 5.6300346320360309e-02 -4.4085376292318362e-01  5.2703326828389033e-02 -3.1891546612786764e-01 -2.0162442202713787e-01  9.5933510945234488e-02 -2.8458367889963099e-01 -2.3477553314687466e-01  1.0110462343242432e-01 -2.8107925890868246e-01 -1.7917365634754018e-01  1.8466043959037656e-01 1.0561111828376500e-01 -7.9414233822