<?xml version="1.0"?>
<VTKFile type="UnstructuredGrid"  version="0.1"  >
<UnstructuredGrid>
<Piece  NumberOfPoints="627" NumberOfCells="1875">
<Points>
<DataArray  type="Float64"  NumberOfComponents="3"  format="ascii">-0.09162408508037292 2.505816580604113 -1.324758645750677e-15  0.1121405787263999 3.005756269527721 -1.335394224441022e-15  -0.7837043438183962 2.451258808692787 -1.308397785692483e-15  -1.390064768909074 2.121195526339636 -1.307095417113052e-15  -1.858604585465254 1.602244168822752 -8.807223519168285e-16  -2.153118440095953 0.9707275629151495 -8.832789304048052e-16  -2.274370061547982 0.2905141300401652 -4.361662355995975e-16  -2.17455324704432 -0.3792963631618844 -4.287302766681701e-16  -1.828405893903173 -0.9643019768448 -4.394994609098907e-16  -1.314397284825516 -1.420547807042347 -4.366890866584431e-16  -0.6919175155497291 -1.720682142277806 -1.868391095857048e-18  -2.9737102887957e-05 -1.82154370394044 3.907181728210199e-18  0.6895651282560528 -1.744119273688209 7.499259246446131e-18  1.31594683309245 -1.452775442941725 -4.38119535365929e-16  1.832989594439101 -1.002670720861804 -4.371034504781346e-16  2.140857938875961 -0.3987689829126257 -4.465817999259531e-16  2.222550497977074 0.2701414123269277 -4.401610264752571e-16  2.082497360395135 0.9251038136286933 -8.900282392577317e-16  1.723352956134297 1.50496826528789 -8.838812911977302e-16  1.203473852853352 1.969191025048762 -8.819134410528724e-16  0.5880143941557915 2.308573828306552 -1.326662797595042e-15  -0.6206162312696342 3.114701350048541 -1.345949935191069e-15  -1.360960787841326 2.995421009461101 -1.29719797065661e-15  -2.025011029354132 2.644178646385532 -1.291232983860054e-15  -2.564036220117098 2.116635087033068 -8.633283649217767e-16  -2.944161049080134 1.467475509967894 -8.917451874365857e-16  -3.159905158393495 0.7479709562304304 -4.534620405272839e-16  -3.206985403147403 0.0008387101909038269 -4.158512039395986e-16  -3.032459874645608 -0.7272701088781268 -4.268008919523608e-16  -2.704958634172703 -1.39379856239577 -4.127090285327225e-16  -2.248390174125395 -1.98301421943181 2.040313077792017e-17  -1.669555146203009 -2.458766032016996 -1.512164749483427e-17  -0.9836044879487302 -2.760161344156831 1.111046423057795e-17  -0.2401483880445676 -2.866717624529564 -9.905225597276827e-18  0.5030871467774991 -2.80540984052133 2.622721118721881e-17  1.214129233721 -2.584073444153272 1.138073687121992e-17  1.858499509989835 -2.216051983982931 4.442350051502847e-17  2.407748066266577 -1.722618221759331 -4.19084149216003e-16  2.838329050005423 -1.119260089467935 -4.235521686592432e-16  3.127436207741657 -0.4350519054394336 -4.321547148740069e-16  3.227400436415401 0.3072168392823176 -4.461296901010865e-16  3.079531247246118 1.042673214001997 -9.239587585449271e-16  2.698330958002392 1.687341008086488 -8.892041698804763e-16  2.149283551033558 2.194598873964406 -1.3043829994452e-15  1.506952446146319 2.56006106361097 -1.303729680147523e-15  0.8167329496415249 2.815106638648304 -1.310291032944691e-15  2.195800834597003 1.316972174481031 -4.106120881631692  2.135734909008522 1.169423929426269 -3.516564700382928  2.500874277033056 0.7758510038869796 -3.908004378144583  -2.478067529833168 -0.2188839547480021 -0.5958213683816814  -2.60785226763881 -0.3942299098479468 -1.083158121528878  -2.684736223024589 -0.07515062535985476 -1.676437448403671  -2.560669258870925 -0.6760764096552405 -1.632794932785051  -0.8067946004997784 -2.199454653662031 -2.833876670613398  -0.3453944067507546 -2.359444231512681 -2.298423365155272  -0.9229234921768223 -2.197543626904432 -2.041198288382838  -2.535423506112919 0.8002369686279974 -3.032908418640272  -2.431175554387301 0.4277132368553198 -3.528069395910262  -2.602332119155544 0.2487584320780777 -2.931375529209888  -0.06679643254665241 -2.351564850033594 -2.99715576516947  -1.907118738967845 -1.470309221361376 -2.685225608825075  -1.955781671019766 -1.576303429396392 -1.895366513805334  -2.344825534216256 -1.060982675126801 -2.142027621461672  -2.199427936111132 -1.272845419570529 -1.369306599840073  -2.202429704538216 -0.7764959915311158 -0.4260715614732192  -1.820879648414197 -1.318060749227099 -0.549045217640367  2.357138976595886 0.7402857788784959 -2.923174820035329  -2.257347579854484 -0.8306451341903611 -2.914856875293074  -2.359566913117746 1.010769182225849 -3.687890957425997  -2.59186540555379 -0.3802411790040967 -2.424185585935919  -2.455368228988764 0.8181001041229429 -1.0555803737931  -2.235545408163011 1.270489904724733 -1.552908614605115  -2.57364999467587 0.6695985674266001 -1.611893794133372  -0.5448746428384987 -1.446177187462672 -4.756881665172142  -0.03736506766418754 -1.569047917410328 -4.933884817025266  -0.1732523706261091 -1.873486093685533 -4.357382655860194  -1.306521608774139 -1.800892596158114 -3.264869322608221  -0.6526374654575746 -2.120942949928175 -3.404131343170856  -1.435595081042257 -1.929177487236162 -2.436987642092159  0.3238073644170004 2.428347224338113 -0.8016928125819165  0.9626788823748547 2.151668240680668 -1.21875898339594  0.3557969050562036 2.204780175121431 -1.592147841971702  -0.8842939389564055 -1.738901414218201 -3.962072702616048  -0.1536569216116836 -2.176762854682882 -3.756654482279682  0.449847676506932 -1.735255626649421 -4.8152256581916  0.9333270404967393 -1.810501996759338 -4.617087777844578  1.168907082103752 -1.987584414878238 -4.042613293093431  0.4520531668040524 -2.073613516503378 -4.172693150562693  0.531157773875076 -2.27923745487688 -3.420420054575551  -0.1570764176151962 -0.7338648075230522 -6.003387663026803  -0.5777336977769661 -0.7931575790564792 -5.557557356221102  -0.5030163955006931 -0.3676403003917118 -6.05993728442615  -0.900528855187765 2.204716217925581 -3.089616084119947  -0.4104333319175918 2.326937694156975 -3.597735733766754  -1.101715385835859 2.230789908726278 -3.733246778726273  -0.628725926323449 2.225736507728958 -4.377725627944721  -1.980711530472079 -0.6580129530740138 -3.701786656048106  -2.364574309903995 -0.230116010606457 -3.294279456394736  0.1234293228776162 2.275655335147516 -4.276919321041865  0.2922471445699783 2.181334338051303 -3.383890417464335  -0.2082133928208517 2.162316158707027 -2.729891071276121  -0.9369234480326371 -0.4121250812243804 -5.534778511233233  1.231315005090554 1.762046029826533 -2.94640793404924  0.5617360734292233 2.008506358415277 -2.576718812753594  1.097823421689812 1.911428262101538 -2.032582290517571  0.7259102901791195 2.100892202270257 -3.950793187718037  0.7698741684749733 2.002304126051364 -3.324602159023378  1.146446578513381 1.881419436180893 -3.632104082300568  0.9317127572435434 2.238991140966526 -0.6068112625633657  -2.146778039703209 0.008994650374077179 -3.930304625686551  -2.10518215477465 0.6503750702381742 -4.254562745032191  -2.644877944654453 0.1880592413832178 -1.090283238662844  2.042964310299543 1.426919489445869 -0.7005002918819592  0.01352533495353496 -2.009466052329988 -0.6470803788823328  2.629024221565566 -0.308735848812864 -2.252203115888175  2.674218167048645 -0.2260160610518552 -1.667884195419952  2.533750977190796 -0.7597353614084421 -1.98105083590396  2.613408095995416 0.2759995191721211 -2.22483649960565  -2.39714385376576 -0.8498095856377493 -0.9742445096626599  2.376389020296031 0.9374676492451579 -0.7667794890154486  -0.3915609476314139 0.1835636170891861 -6.51261197487025  -0.9239862459885515 0.04883385610462494 -5.887317829776148  -2.438478201083046 0.5400683790866795 -0.5404071765254325  2.203767427254019 -0.7812107439789928 -0.5776745795615725  1.764971647444729 -1.300810875974429 -0.5017954704742518  2.129863298343664 -1.172726878686072 -1.04995582586744  -2.298487477879038 1.298093577280355 -3.232676212262093  -2.300721783209349 1.285297203377606 -2.51505964741551  -0.8364740798533031 -0.9154979148932467 -5.153970635687568  -1.31929742309755 -0.4672511041606516 -4.97314578330649  2.33940956199906 -0.9361237760964747 -4.385998552932175  2.598670430748549 -0.362255870557329 -4.450613404328905  2.495945200581109 -0.7453646871850667 -3.656312151973669  2.696029721682391 0.6320012659020591 -5.42884807900951  2.646238140168335 -0.02270696424811343 -5.233964027712512  2.687918046083892 0.1675531384626012 -5.946843496294275  1.178902984649848 -2.120753277414534 -3.192921837461407  1.606000660360855 -1.844566732547179 -3.693329322036776  1.716160085763694 -1.643595951884331 -4.219417423621119  1.47396671185353 -1.563156931812542 -4.766648310172624  1.728450101337803 -1.789787948851179 -3.208775211064236  -1.67529590770091 -1.730977747389872 -1.222781886711146  -1.424025838454055 -1.954498407446798 -1.781978763522494  -1.027542353907181 -2.075733738508966 -1.39436815435621  1.52791875405752 -1.972865001265906 -2.547181048708409  -1.171530197760074 -1.078029899565808 -4.571940783098042  -0.3286285031479153 -2.243480991037569 -1.468812150512998  -0.3542046081526165 2.153065394041818 -1.840005470518678  -0.2337278068242678 2.390257879458074 -1.18239183338361  1.504641026302712 1.925888023488715 -0.784099439277845  -1.198599796332843 -1.817176556099908 -0.7439691977463142  -0.78106644026274 2.29106873183416 -1.231580255011899  2.293342326025221 1.188843001685079 -1.295018667603912  2.63554518485003 0.4208212383779876 -1.23032729972243  -0.6542941455329752 -2.033835368422236 -0.8715647250263229  -1.809502677061747 -1.199603973672471 -3.376743951149094  0.09342185086069371 2.08047925447208 -2.272333674083395  2.423383215783942 0.4647811649827959 -0.4881179363981716  -1.36097083715263 0.2296428285218975 -5.394599540046927  -1.768686595565088 0.6779533121362511 -4.868181756178067  -1.329435763108792 1.090815347173544 -5.479605377545996  2.46586371924427 -0.1592444071879767 -0.6479838562217876  -1.762544710908598 1.307715450696353 -4.628405159665191  2.08255337075528 -1.460800646192025 -2.856882304286547  2.300322993485417 -1.204181915494597 -2.279487876537934  1.99978065209625 -1.589159054624181 -2.196660653219401  2.193689206833425 -1.323295328688838 -1.650514926741
[...]
<PointData  Vectors="f_369094-0"> 
<DataArray  type="Float64"  Name="f_369094-0"  NumberOfComponents="3" format="ascii">3.8224572983085674e-02 4.8152937578642024e-01 0.0000000000000000e+00  1.0277374941949839e-03 4.0910773086015717e-01 0.0000000000000000e+00  -7.8041043731945786e-02 4.3494953444420881e-01 0.0000000000000000e+00  -1.8634075933725433e-01 3.6800423367682866e-01 0.0000000000000000e+00  -2.6823784265557787e-01 2.7947124928944017e-01 0.0000000000000000e+00  -3.3161319043625409e-01 1.6739476376964649e-01 0.0000000000000000e+00  -3.6484216133284986e-01 3.2916910110916235e-02 0.0000000000000000e+00  -3.7322972137235838e-01 -1.1538606997456495e-01 0.0000000000000000e+00  -3.5051785341322356e-01 -2.6883170511161342e-01 0.0000000000000000e+00  -2.9062178893770296e-01 -3.9995545203352595e-01 0.0000000000000000e+00  -1.9669070405086395e-01 -4.9377865095568069e-01 0.0000000000000000e+00  -8.5766932141346702e-02 -5.3401638306752475e-01 0.0000000000000000e+00  3.1077323723924376e-02 -5.1734381623171488e-01 0.0000000000000000e+00  1.3590630830626985e-01 -4.4643907969684299e-01 0.0000000000000000e+00  2.1411699018130828e-01 -3.3229116486673715e-01 0.0000000000000000e+00  2.6322087268498839e-01 -1.9262363828208223e-01 0.0000000000000000e+00  2.8734157873145810e-01 -4.0625350545550887e-02 0.0000000000000000e+00  2.9483533402615453e-01 1.2237908433664213e-01 0.0000000000000000e+00  2.7773795279411645e-01 2.7790914090212110e-01 0.0000000000000000e+00  2.2941029583766390e-01 4.0472197816971106e-01 0.0000000000000000e+00  1.4663275766476275e-01 4.7930353217138932e-01 0.0000000000000000e+00  -8.9937548368387077e-02 3.4762028202580092e-01 0.0000000000000000e+00  -1.4220616985324414e-01 2.7673321666985257e-01 0.0000000000000000e+00  -1.7906174865127503e-01 2.1210843446861063e-01 0.0000000000000000e+00  -2.0101623656634054e-01 1.4941953523348672e-01 0.0000000000000000e+00  -2.2231793024323215e-01 8.8444326702299014e-02 0.0000000000000000e+00  -2.3480568465299748e-01 2.4679360441454506e-02 0.0000000000000000e+00  -2.4240982117874865e-01 -3.8702934810467056e-02 0.0000000000000000e+00  -2.5169304406886878e-01 -1.0664260506939782e-01 0.0000000000000000e+00  -2.4760206716703204e-01 -1.8508523474091151e-01 0.0000000000000000e+00  -2.2527811035369036e-01 -2.5656298227499746e-01 0.0000000000000000e+00  -1.8649880913160344e-01 -3.1566115476087708e-01 0.0000000000000000e+00  -1.3066287417267050e-01 -3.6479420785032679e-01 0.0000000000000000e+00  -6.5107644295591197e-02 -3.9149301828776079e-01 0.0000000000000000e+00  7.7520871744311045e-03 -3.9162156310685414e-01 0.0000000000000000e+00  7.4967320297472217e-02 -3.6056754016493936e-01 0.0000000000000000e+00  1.2828403379179126e-01 -3.0299849293032671e-01 0.0000000000000000e+00  1.6081510200073873e-01 -2.2384311065185267e-01 0.0000000000000000e+00  1.7164649161086726e-01 -1.4287120229849720e-01 0.0000000000000000e+00  1.6595764052925049e-01 -6.6149008867366799e-02 0.0000000000000000e+00  1.6149215118295410e-01 -7.8907722427802862e-03 0.0000000000000000e+00  1.7366822125334341e-01 4.8382464080505470e-02 0.0000000000000000e+00  1.9461769088981473e-01 1.2754389169929461e-01 0.0000000000000000e+00  2.0190927167838216e-01 2.2902310999293846e-01 0.0000000000000000e+00  1.7104917429831373e-01 3.3481596282078147e-01 0.0000000000000000e+00  1.0252196873055899e-01 4.0591157112783061e-01 0.0000000000000000e+00  2.6734013491621472e-01 2.5952881583845600e-01 -1.4311211910063978e-01  2.7536305945430989e-01 2.6024674634976724e-01 -1.2284561509415307e-01  2.8966117097956440e-01 1.5235596641713267e-01 -1.3595870355313361e-01  -3.5398176253042163e-01 -7.8061318632619836e-02 -5.8596133139364191e-05  -3.3294587484648847e-01 -9.9793959140479310e-02 -3.8906057373155903e-02  -3.2159631142074036e-01 -5.0540484197973780e-02 -8.6228628064312737e-02  -3.2389455215053264e-01 -1.5182525079409320e-01 -8.7151880044006869e-02  -1.6190165864278475e-01 -3.9971325925713946e-01 -1.9083499623068453e-01  -1.0152288378934086e-01 -4.3421630010555801e-01 -1.3366403180406378e-01  -1.7244158677093385e-01 -4.2058648315921565e-01 -1.1646791545057834e-01  -2.7731880109311879e-01 4.3283862818260466e-02 -1.7083566104610765e-01  -2.9782407878096284e-01 -4.2540861314823070e-02 -2.2669930730190394e-01  -3.0664343338182487e-01 -4.1150875700547013e-02 -1.8135245810184386e-01  -6.5856413521286655e-02 -4.1036289415518312e-01 -1.9221468890101331e-01  -2.8728690299951032e-01 -2.9886177295273414e-01 -1.9226790098204996e-01  -2.8218489164301552e-01 -3.0806433160518609e-01 -1.1316319366680420e-01  -3.1245796143561205e-01 -2.2185951810465571e-01 -1.3714251051674214e-01  -3.0807700715489300e-01 -2.6157889072906665e-01 -6.2263101565677277e-02  -3.5461912994973499e-01 -2.0279795540816900e-01 8.8603507614925820e-03  -3.1586703274208733e-01 -3.2790321348741830e-01 4.2007497224968741e-03  2.8673386807190104e-01 1.7016631907315860e-01 -1.1346798307155082e-01  -3.2314222130624343e-01 -2.1326569456012973e-01 -2.1356055769527763e-01  -2.5455644345313094e-01 4.7735670542467017e-02 -2.1142528457489992e-01  -3.2267629529394659e-01 -1.2324496795395920e-01 -1.5546650828087619e-01  -3.1533760642726355e-01 1.1086694728714802e-01 -3.5933765696146036e-02  -2.6989735134203102e-01 1.9568218130820625e-01 -6.8217900372900292e-02  -3.0396762239765307e-01 7.9343016563229660e-02 -7.3049499769520090e-02  -1.6366158481711554e-01 -3.3105376158084765e-01 -3.5452025861651087e-01  -8.7707336857705945e-02 -3.3422192967697956e-01 -3.4991214440825480e-01  -9.9013810506365235e-02 -3.5931727515216144e-01 -3.1209399771018281e-01  -2.3446352787543340e-01 -3.5218159763975460e-01 -2.4222486199681814e-01  -1.4930731070506789e-01 -3.8657981668092883e-01 -2.4159650619686779e-01  -2.3374865582345375e-01 -3.6547283927399016e-01 -1.6243745627769893e-01  7.8420452883039643e-02 4.7689289624842296e-01 -4.3595272285939603e-02  1.5653083344104285e-01 4.4703563970887245e-01 -6.5924302952252836e-02  7.5540056594295774e-02 4.8204469480404533e-01 -8.8362233423103689e-02  -1.9718139951157143e-01 -3.5534508293187322e-01 -2.9989345984045546e-01  -8.3703877273616265e-02 -3.7968652024227584e-01 -2.5915867947677695e-01  -1.3021865362250837e-02 -3.3315569238253462e-01 -3.2355529404935957e-01  5.8415408763212821e-02 -3.1753012453154816e-01 -2.8997490257566322e-01  9.3410983695644087e-02 -3.2233020416695085e-01 -2.4100665581054048e-01  -3.0741729880078639e-03 -3.5519383425368850e-01 -2.7545189666614361e-01  1.4130872959800591e-02 -3.8268972132243750e-01 -2.1420706472345077e-01  -1.1747829310215274e-01 -2.3673914205700328e-01 -4.0113750834317707e-01  -1.7497539573583581e-01 -2.5640175747350713e-01 -3.9659763518978303e-01  -1.5922386356392301e-01 -1.8590344863315714e-01 -4.0716129331382611e-01  -8.1791970650270399e-02 3.8532178897347574e-01 -1.2894925175827507e-01  -1.9823431242366064e-02 4.0468793408236309e-01 -1.5648329275241335e-01  -1.0634863354980299e-01 3.1630554853374254e-01 -1.7633120539976416e-01  -6.5521454466986817e-02 3.2592388594020577e-01 -2.1099969497534299e-01  -3.2325733176308441e-01 -2.1768572520356599e-01 -2.8637114752888987e-01  -3.2597764013888142e-01 -1.3871419725055797e-01 -2.3646482390489451e-01  3.4626281982104795e-02 4.0263221074096550e-01 -1.8787805231087057e-01  7.8489227570178427e-02 4.5779822805602055e-01 -1.3465165689716926e-01  9.8903764112904108e-03 4.6273596537882489e-01 -1.1043795608118805e-01  -2.1712402770991726e-01 -2.0313050502105712e-01 -3.9365088622003719e-01  1.9634685583075911e-01 4.2385880711647644e-01 -1.1789368254074965e-01  1.1257842684418512e-01 4.7620301794360376e-01 -1.1046540744488570e-01  1.7290558608058251e-01 4.4069492018663714e-01 -1.0012585500658962e-01  1.2429860095364687e-01 4.3733428391831791e-01 -1.5543253512649854e-01  1.4204970038463791e-01 4.5582403463307214e-01 -1.2775270330039798e-01  1.8179251890366929e-01 4.2690147594827565e-01 -1.3482045620710101e-01  1.6724795194483208e-01 4.4787242670131555e-01 -2.4294762057105755e-02  -3.1531716930389536e-01 -1.2448734903905845e-01 -2.8365842722957518e-01  -2.7619797531402474e-01 -2.8588299266946809e-02 -2.7674658918812683e-01  -3.2866037747199545e-01 -6.4092307493973091e-04 -4.0376000388846832e-02  2.6708127456637820e-01 2.4281229387952852e-01 -1.3800752463222661e-02  -5.7272859003895997e-02 -5.2302181105241785e-01 -3.5761892859623059e-04  2.7800199188860930e-01 -5.8444238779435921e-02 -9.2348800557112615e-02  2.7011640287490146e-01 -6.3756862550218257e-02 -5.9018089280886483e-02  2.6256080684083782e-01 -1.4893826789929193e-01 -7.7649435643072764e-02  2.8426046223271084e-01 5.0534164964680585e-02 -9.1863890797906939e-02  -3.3198339522825576e-01 -1.9161000324534100e-01 -2.9829703187907924e-02  2.7706514522127623e-01 1.2773607413660609e-01 -1.1962203138253769e-02  -1.3224317775160055e-01 -8.7259161878915359e-02 -4.0022700706105580e-01  -1.9959289997141677e-01 -1.2798189446151656e-01 -3.9263687549234494e-01  -3.4403379298089870e-01 6.3329607885672004e-02 -3.6394576893023002e-03  2.5442127908619472e-01 -2.3093001163582041e-01 6.4131671262102827e-03  2.0602332802341924e-01 -3.5655725885486100e-01 6.9912645755428457e-03  2.3043219544909638e-01 -2.7875484580521614e-01 -1.5068963571355516e-02  -2.4195502285206061e-01 1.2430762682782162e-01 -1.6841828665069539e-01  -2.5388373884409310e-01 1.6331467662570054e-01 -1.2120998389463722e-01  -2.0854986435848544e-01 -2.7332945772886125e-01 -3.8213191827700899e-01  -2.6483697071200557e-01 -2.1291113399014172e-01 -3.6937457954610764e-01  2.4120845836635199e-01 -1.4601792411643860e-01 -1.9939292939695066e-01  2.7346681137064449e-01 -5.4419746650349696e-02 -1.7912151607761931e-01  2.6895929246264849e-01 -1.0991814404820367e-01 -1.5448449922413884e-01  2.6537722652985257e-01 9.0378154062925653e-02 -1.9838105885454752e-01  2.6717262055261332e-01 -1.5290516215290290e-02 -1.9983362282136638e-01  2.4347176560837619e-01 1.5360678233878726e-02 -2.2471236834665653e-01  1.0225949431037371e-01 -3.5744078234023219e-01 -1.8058662279269164e-01  1.5364645500533450e-01 -2.9508448798694031e-01 -2.0069926321857035e-01  1.6437717408038663e-01 -2.6050588381270495e-01 -2.2907765667840108e-01  1.2949376607995217e-01 -2.6929921948444757e-01 -2.7225442240883113e-01  1.7587005763956717e-01 -2.9895527421624218e-01 -1.6515916711125123e-01  -2.6689854443980632e-01 -3.6339185370186600e-01 -4.6470981251810262e-02  -2.3162621757814192e-01 -3.8470974681242626e-01 -9.7705746270171839e-02  -1.8936579432730324e-01 -4.3781554285917723e-01 -5.7236037286697322e-02  1.4796849567964784e-01 -3.4910608936820842e-01 -1.2866259703446770e-01  -2.4880622084142892e-01 -2.9098605140651418e-01 -3.5163131485474741e-01  -1.0042725609675203e-01 -4.7570917521705985e-01 -5.5522571674164280e-02  -2.3460362594827901e-02 4.6757313697747738e-01 -9.4653109620239873e-02  -1.0266736903133835e-02 4.6699531785071241e-01 -7.1309468152880737e-02  2.2390274856582626e-01 3.6941088366957553e-01 -2.8817097754689575e-02  -2.3144841999282664e-01 -4.3853314037613178e-01 -8.7218880321575896e-03  -9.2056591676581923e-02 4.2882494845621921e-01 -7.1861486058901636e-02  2.6768631718495656e-01 1.9683664600010425e-01 -4.8867474109105920e-02  2.7322311208081307e-01 3.5782280932317730e-02 -3.5737273858245037e-02  -1.5290679376063582e-01 -4.8813244649839804e-01 -1.3307789908981906e-02  -3.0176600146818999e-01 -2.8290492409901929e-01 -2.6205205458659470e-01  4.6822462509129123e-02 4.8651418271766228e-01 -1.0349550797234765e-01  2.8598499436069569e-01 2.3930652591603697e-02 4.6374008001986017e-03  -2.4090703370352742e-01 -1.0480581979697065e-01 -3.6401651886693442e-01  -2.5335191991139694e-01 -3.0299779800657092e-02 -3.1225698504924454e-01  -1.9678034338702075e-01 3.5453052106196328e-02 -3.1680763351941726e-01  2.7453855141478251e-01 -9.7485764346618750e-02 3.0163732230428942e-03  -2.1738737549239881e-01 8.0581723956903328e-02 -2.6569074725107417e-01  2.2235970110990655e-01 -2.4978227306998169e-01 -1.3462676403291840e-01  2.4296155014370255e-01 -2.1862738684041613e-01 -9.8122270658568753e-02  2.0684571886397313e-01 -2.9200806606753299e-01 -9.7546180461052040e-02  2.2482511105981642e-01 -2.6654163361311811e-01 -5.5378913198930811e-02  1.3431527409901550e-01 3.4041055448251312e-01 -2.3283003041404324e-01  2.2655529290601636e-01 3.0980722695737656e-01 -1.7851927231509904e-01  1.9832843754705534e-01 2.6988385071672766e-01 -2.2638288715113530e-01  1.7781863843569795e-01 3.9725021870482280e-01 -1.6524818715790790e-01  -1.2658738545250575e-01 4.0415774106501301e-01 -2.9662523157006893e-02  -4.0575150083800714e-02 4.5038748918876637e-01 -3.8150113895704801e-02  2.3574493697520771e-01 3.5792618289405254e-01 -1.3281293093277924e-01  2.7168909887523801e-01 1.8698086840833178e-01 -1.7070352513335627e-01  2.4817899939494478e-01 3.1402278410645801e-01 -9.3079179802645282e-02  2.1166592331588158e-01 3.8571560624170265e-01 -7.4170033236109045e-02  -1.4508486739519236e-01 3.0484453684512386e-01 -1.4407025085618624e-01  -1.3490324353052738e-01 3.6093820176877744e-01 -1.0807404170826809e-01  -1.9977518996748544e-01 2.4100760135686200e-01 -1.3492300094974277e-01  -3.0055408081686102e-01 1.8789131792401018e-01 -1.9485230311856571e-02  1.8124969926001031e-01 -3.6948896069242859e-01 -1.7475760923814254e-02  1.3421874273053866e-01 -4.4094794723599379e-01 3.1903494638284582e-03  2.8573002195757224e-01 5.3581913608907912e-02 -1.6764856110652443e-01  -1.0783230040503602e-01 2.3796015048302988e-01 -2.5510286098266682e-01  -1.4658176036190837e-01 2.1978920530528187e-01 -2.2884430352207988e-01  2.4598064644808745e-01 3.0814085896601762e-01 -5.5232719474193191e-02  2.7749354195045595e-01 1.6747027858100139e-01 -8.8138232271391059e-02  2.7529257410270014e-01 2.4715160268015177e-01 -1.0526961116357650e-01  2.5596194548994128e-01 3.2124957153489953e-01 -1.1449929426588470e-01  -1.7241442671739118e-01 3.6467832050500115e-01 -5.5360894087410489e-02  2.2137335578421852e-01 3.9079630585305208e-01 -1.0913465652098585e-01  -1.1748453616806513e-01 -2.9631035992480920e-01 -3.8282841574063803e-01  -3.3778880010876908e-02 -2.4305581556289227e-01 -3.7931392944864611e-01  -1.7880972798791230e-02 -3.0160830571882380e-01 -3.5550328246228491e-01  6.2126134513183363e-02 -2.4380805002845857e-01 -3.3553791629666713e-01  -2.6668665283855107e-02 -4.4466371838445523e-01 -1.1025879763934457e-01  3.3436526519038827e-02 -4.0580418317649358e-01 -1.5617727239496521e-01  7.6956469426823312e-02 -4.1722319746289105e-01 -9.1922983304403766e-02  2.9025508695135943e-01 1.8216247693207500e-02 -1.1658545881436076e-01  -1.0618940832931895e-01 1.0511597071922182e-01 -3.4224046671508962e-01  -5.4737229474570277e-02 8.8766421419474217e-02 -3.5213900022342576e-01  -1.0743984230718577e-01 1.0485622883630039e-02 -3.7609320007854075e-01  -6.3677437465676667e-02 -3.3205085844367675e-02 -3.8639642142606656e-01  2.5405262512912880e-01 -1.8434973301606356e-01 -1.4301077896874007e-01  2.7313761839857353e-01 -1.2525654150487076e-01 -1.1798953736305533e-01  2.1920053999107067e-01 -2.1528838961012151e-01 -1.8315526470270685e-01  -1.2252699459262210e-01 4.0213377139709655e-01 -8.6609028123631054e-02  1.5947793515364989e-01 -3.6176177000239529e-01 -6.6063167319896324e-02  1.0098020836560546e-01 -4.3923788786680862e-01 -3.1459255338021734e-02  -1.7109369785134265e-01 1.4092580189677981e-01 -2.7179932573383214e-01  -1.2571512507091132e-01 1.5181135909357668e-01 -2.9999951358649940e-01  5.2862647283841643e-02 -4.8841714843553002e-01 -5.9488932227654027e-03  2.6930435171049855e-01 -7.5735522833269134e-02 -2.6419755534548679e-02  2.5787339719854657e-01 -1.7248522185316464e-01 -2.9460215503371818e-02  -4.0518792010125516e-03 -4.8275203177005566e-01 -4.0919057343854301e-02  -6.2195106713849604e-02 4.3773145768440630e-01 -1.0059403657162035e-01  1.2694592699677251e-01 2.6649015153691635e-01 -2.7231236885155807e-01  1.9071539599341955e-01 2.1091014489609353e-01 -2.4967322697470490e-01  1.1793264055936549e-01 1.8396674154551260e-01 -2.9096215983505597e-01  9.2153819974444495e-02 3.9076053596496813e-01 -2.0596212870006195e-01  -2.8906783421425858e-01 6.0554464174745831e-02 -1.2833711447735408e-01  -3.0734248381541318e-01 -2.0315523593821397e-02 -1.2630504861112332e-01  -2.8061509446080229e-01 -2.9732035074403496e-01 -3.0773894287158410e-01  -3.0694332657723183e-01 -2.0575241685699155e-01 -3.3046450768517482e-01  -2.8949796265929145e-01 -1.2271283641046013e-01 -3.2986471616827956e-01  -2.3438284390377970e-02 3.2977484184927935e-01 -2.3205139548483322e-01  -3.5959316148820989e-03 3.0610955701318571e-01 -2.6209731419530480e-01  -6.5160706833955473e-02 2.5386404801873264e-01 -2.7263307144811827e-01  3.6281793194324501e-02 3.0463493246444834e-01 -2.7547886470061639e-01  2.9746876240461440e-01 9.6749290867847101e-02 -1.2145960057619919e-01  2.9051573817226301e-01 1.1194132104343774e-02 -1.3922541197103022e-01  -1.6245272399540497e-01 2.3526890272183185e-01 -1.8220686548425027e-01  2.3505338555333979e-01 -1.2025445929554007e-01 -2.2411551280163963e-01  -4.7237724639096285e-02 2.2807212807481975e-01 -3.0360193841088529e-01  1.9709930605494572e-01 -2.0837549012373649e-01 -2.3683681516884841e-01  -2.0699971394773586e-01 3.1272966385925988e-01 -7.6773483523437255e-02  -2.0771380788113533e-01 1.4431159778621508e-01 -2.0777996331459753e-01  -1.5125187774605450e-01 6.3893598336624460e-02 -3.3372146812961884e-01  -1.6637836746150841e-01 -2.2256364229297707e-02 -3.6898053179438173e-01  6.8206096001933350e-02 -2.8689211151703015e-01 -3.1596869132313288e-01  1.6004209235856159e-01 -2.0174900902037987e-01 -2.7844942780913839e-01  -2.4554024980247127e-01 2.8013537042148984e-01 -3.4999536869808563e-02  -6.8559543099944512e-02 -1.4926915810893565e-01 -3.9909240219698144e-01  2.1939353876028522e-01 -8.5856183372555864e-02 -2.4183948101432032e-01  9.3056578621623878e-02 -1.0104209438278530e-01 -3.3723836686360847e-01  1.1555394366635512e-01 -1.7917326225191230e-01 -3.1640483980727224e-01  5.2697262647897772e-02 -1.9268719540732690e-01 -3.5101370295934514e-01  -2.4266748800430257e-01 5.3032665448033180e-02 -2.4512142184778382e-01  -2.2331697720598384e-01 2.5945422021186149e-01 -9.4648207573671345e-02  3.7117310180236937e-02 2.1030310544051897e-01 -3.1242678118509470e-01  6.8980075987564171e-02 2.8559897917461036e-01 -2.8627502082811529e-01  -1.9593629942755063e-02 2.1155241006587736e-01 -3.2077537925162103e-01  2.3294940781044313e-02 1.2715834810156940e-01 -3.2089548688229219e-01  6.1777065526673884e-02 9.1722962744660269e-02 -3.0681351047563121e-01  2.4257449531259723e-01 1.7903262752210289e-01 -2.1219341809034342e-01  2.4035709345979833e-01 2.3911629522346481e-01 -1.9661919230998795e-01  -2.7817299764575076e-01 1.4513295742565271e-01 -9.3041467156312230e-02  -1.8016964757790396e-01 3.2659388990651239e-01 -9.6287362770765633e-02  2.8909240744215553e-01 -4.5596035419488277e-02 -1.2927409303335624e-01  -1.1750701127466449e-02 2.9114940317556119e-02 -3.5539166140300504e-01  6.8797241013201532e-02 -8.3988410950580818e-03 -3.2892442308084080e-01  1.6525706187509176e-02 -7.3062399250650764e-02 -3.6819292099339751e-01  2.0620544600859478e-01 1.0868112453219510e-01 -2.4662853222860659e-01  1.2795336762147139e-01 1.5221429100428991e-02 -2.8831106694376835e-01  1.3377671878653447e-01 9.2014788701117498e-02 -2.7642379234086190e-01  1.9645149472404341e-01 4.2474265453958902e-03 -2.5938150586484382e-01  1.6724809692508982e-01 -1.0995059247936081e-01 -2.8553765726975278e-01  1.4993492343474762e-01 -4.1706285710955242e-02 -2.9146053189134918e-01  1.1020877756184778e-02 -1.5799959927573998e-01 -3.7368603480233259e-01  -2.4485191475744336e-02 -3.6788027738033519e-01 -6.7523014850208438e-02  -9.9132840963964963e-02 -3.6055085920007246e-01 -6.3685449977202727e-02  1.4819885086687187e-01 2.6126491132379304e-01 -1.0391487772752261e-01  1.7895721451754246e-01 1.9379322064729898e-01 -9.1147689883821451e-02  1.7251245544985810e-01 2.1684660321033269e-01 -1.1073214366575736e-01  1.5447599098707285e-01 -8.5340965955098214e-02 -3.7244626678157276e-02  1.4852212479852192e-01 -1.1778312024369564e-01 -5.95791