<?xml version="1.0"?>
<VTKFile type="UnstructuredGrid"  version="0.1"  >
<UnstructuredGrid>
<Piece  NumberOfPoints="670" NumberOfCells="2005">
<Points>
<DataArray  type="Float64"  NumberOfComponents="3"  format="ascii">0.01143471392600143 2.322058646311766 -1.347044317847578e-15  0.2235542222193571 2.915964767082192 -1.383200870886047e-15  -0.6566288887588655 2.38509470766481 -1.322916146690162e-15  -1.263930514914543 2.153600102380801 -1.300905349991896e-15  -1.722892988033654 1.690202051082989 -8.663392753180351e-16  -1.996427622919773 1.092560994853747 -8.813869133527805e-16  -2.052693585933485 0.4452031841724843 -4.279954921149402e-16  -1.932109390803058 -0.1882612587022258 -4.122812733077995e-16  -1.596462259083465 -0.7309290282375652 1.675511294712762e-17  -1.107512810407435 -1.142964784719629 1.967308877114902e-17  -0.5065338947620845 -1.366442717651879 7.414881302265895e-18  0.1377742162720414 -1.391554147088407 9.325231152957512e-19  0.769185578088085 -1.246834424590715 -8.403578856096565e-18  1.317903717462216 -0.9069065558246209 1.445397419754835e-17  1.74672333004569 -0.4309914645870643 7.835855715198573e-18  1.965985814502896 0.1659908185013814 -4.348662782982162e-16  1.965827303770457 0.7916449891076608 -4.373689351798421e-16  1.694588256250982 1.355459511847444 -8.817651586416068e-16  1.237271674312927 1.802006096546839 -8.703494595366994e-16  0.655336496385869 2.127186698485858 -1.306783788252213e-15  -0.4810641522642086 2.964745480803135 -1.32708210606667e-15  -1.189796192416329 2.850821376136993 -1.27995480974219e-15  -1.833072484853442 2.52404773414145 -1.286914125758466e-15  -2.355434510146814 2.02052403676632 -8.580664968356717e-16  -2.714666354662746 1.398374623544976 -8.21592802652587e-16  -2.906765200747018 0.700973023396005 -3.929304083889129e-16  -2.915878201437863 -0.0164496307116337 -4.301357660788834e-16  -2.731059390768021 -0.7124582163831923 3.309182017274817e-18  -2.379413822082256 -1.340324614157221 6.485959375591185e-18  -1.885588311143241 -1.859050284381534 1.468941357378428e-17  -1.277567542312638 -2.242332382069575 -1.903173999914305e-17  -0.5797953784662446 -2.44268971399572 1.551697410409284e-17  0.1345628704409693 -2.464428341948844 1.20946388835812e-17  0.8366877103341031 -2.328403716331238 -4.478507236969446e-18  1.490785464307624 -2.038754166049845 -6.662348226268082e-17  2.064401433048499 -1.614251755576803 3.410757327714844e-17  2.53153818005004 -1.075165712431822 2.724835283868827e-17  2.875915777052847 -0.4440319993963644 -4.283154312147956e-16  3.074774821215355 0.2590846101127289 -4.287984043973792e-16  3.065335213794787 0.9957668254620702 -8.748328412414995e-16  2.777754602797291 1.684183105683057 -8.788842023134324e-16  2.267886485494433 2.227837646089117 -1.325917470507335e-15  1.624589734610915 2.592611806201982 -1.320284252232486e-15  0.9304735172293657 2.798291675443968 -1.309379979733695e-15  -0.07114701568836676 -1.934796102133854 -1.176426200594542  0.4415589040687332 -1.636998314573407 -0.6704592344279302  -0.2066480503662755 -1.648224882140314 -0.5453805512471596  0.4859108190714544 -1.917318424709781 -1.281350175743568  -1.319458446701542 1.803265628131535 -1.660997863613619  -1.588645566287539 1.585764066039828 -2.54133668333556  -1.911467286112865 1.349951246418271 -1.717877126068301  -2.067502104305937 1.210141998084391 -2.439222875285788  2.422790904723832 -0.5446919981747638 -1.92401514430498  2.55340757451989 -0.0542581296870187 -2.278877898350941  2.512902831757569 0.08796056370378813 -1.770662927578797  1.976297294934218 1.376178471668857 -0.8020210512697997  2.075272308803595 1.036064039150085 -0.5044187244315289  0.2616178665665241 2.309004442422928 -0.5467444932258159  0.7485955379650775 2.166273481914103 -0.7161718353466937  -2.034577227226396 -0.5668864698159095 -0.535571966843523  -2.31106936833828 -0.2060626197260233 -0.8501742644840709  -2.230373339347931 -0.7849808499503985 -1.198522666259726  -0.7014819278272062 -2.082335816846824 -2.020979652032327  -0.08122808208981658 -2.206374397784557 -2.176419127508225  -0.3473503954164725 -2.093095113719787 -1.635141167214881  2.362794313210892 -0.3048733553426458 -1.325813559942265  1.580548754348197 1.697145736129392 -0.5041440657946529  2.091065330737961 -1.006570310288227 -1.547063162146636  -1.057208567453447 2.286735146312626 -0.5565500081858329  -1.686314882961746 1.837236203776981 -0.4773051495457454  0.8708049670595666 -2.036087044272261 -1.830994488673127  0.9590416217809862 -1.702644920200503 -1.152247313713161  -0.5319651670051692 -2.157053412871405 -2.733276597610567  1.664835521512569 1.707059517886944 -1.211185665890778  1.223274640482712 1.96626478584319 -0.9432781121239042  2.51974231081599 0.3773256541383543 -2.202269784816309  -0.5347845553459747 2.062817195872789 -1.599437715089608  -1.002507275707004 1.813333597547879 -2.173943632803726  -2.029683369000749 1.328179725993689 -0.6363472869095272  2.393112781343117 0.7598490837143479 -2.39637233158621  2.566526241863721 0.1961314598318148 -2.845484915312013  2.287181180457777 0.8061381474076156 -3.211615060455898  1.96163629766906 -1.446641328680421 -2.192017485802316  1.735334814314828 -1.50636608684445 -1.700864430345016  1.454304845425696 -1.878603489584559 -2.2317381158113  1.335375120250446 -1.74548581877171 -1.597290293840233  1.470171661277415 -1.966628115182739 -3.053104564723665  1.035412257354907 -2.116682835696007 -2.520617633547038  0.6822857187964579 -2.239467234114256 -3.04088466213198  0.1469934491542015 2.203578496509389 -1.206360371728933  0.7033895930696861 2.074667939070974 -1.399423254155196  0.4873596127094387 -2.216579244280565 -2.312720815495664  2.403417106626467 -0.9545374118120888 -3.245422108713307  2.146030677473957 -1.357236532586001 -2.756786193170392  1.989661278628295 -1.559283975502592 -3.238683694286927  2.326004866722981 -0.9735034857341872 -2.373652048053586  2.428550271897399 -0.4410046580733866 -4.866405343828312  2.545235054166242 -0.366294112313445 -3.97304459429045  2.370047557643504 -0.904097520501141 -4.158636759510057  -0.05362673567784196 1.741158172974354 -5.322624806760417  -0.3067751959669823 1.783902886027328 -4.835766033247856  0.2516768074727667 1.792995991436454 -4.791727234653873  -1.830033325039355 -1.321131833077622 -1.161221354853313  -1.560132575133043 -1.66860767593431 -1.776854665603378  -1.251590054881579 -1.680882716643948 -1.104283596057751  -1.016122810654193 -1.931741236366164 -1.642969302834013  -1.461416830723053 -1.257244169763117 -0.5716341868808851  -1.86345479743999 -0.9604464698627128 -0.6853914944042456  1.505836022521021 -1.339770765138197 -1.051411639827171  1.511697121131598 -0.996992364635831 -0.4965306623815679  1.015263993480853 -1.382466407878286 -0.5802704042497605  1.930950538106266 -0.7708990101422881 -0.8697673012204367  1.293285507938609 1.843140659468432 -1.761906190563841  0.6390436959145055 1.919592103456474 -2.160897827916413  2.224559732896287 0.5679715665439133 -0.5889660260928635  -0.4665860520361995 1.895391492607724 -2.426675600109347  2.437270501391215 0.3502169619125203 -1.179328674849512  -0.9485822626009315 2.14978990464825 -1.161665706283424  -1.349533307309329 2.020381919136693 -0.9876820945993036  -1.783832244915981 1.639228687957162 -1.10173605558502  -0.1667452054704194 1.845240102204388 -4.064784948200225  1.034341162400231 -2.086023647754276 -4.177134781143024  0.5120750733377084 -2.035513879411824 -4.594490558658528  1.118259459766845 -1.868192452164824 -4.760892763732548  2.441176581580396 0.6787551964187011 -1.636101201225496  2.222643837956305 -0.03625314584363901 -0.7014756174310178  -1.228470202059204 -1.880867828479276 -2.388299763753654  2.291507247586141 0.9403735765038873 -1.050474204068388  -2.359330103927298 0.8386182753466441 -2.885406006506309  -2.367788392126585 0.7073608247141794 -2.03642808319185  -1.363499338949679 1.635620771403962 -4.227437893719459  -0.8059821795755572 1.744606898725908 -4.580962054136798  -1.281017607872221 1.453975428103603 -5.034304777780767  -1.828393869092405 -1.449829497498838 -2.402048057566314  -2.283931794581074 0.3082390687165888 -0.6472970279760345  -2.195317708594201 0.7967596176226011 -0.5333007273570055  -2.216968814800178 0.9430980094775255 -1.099120810805887  -0.3207292000077063 1.890322742367052 -3.293250746735793  -1.049718072155125 1.821379545701092 -2.993204579775017  0.1106845290709745 2.02568882964143 -1.830419842510433  -2.446307985175144 0.215915461412434 -1.360921118095908  -0.3798265278378513 2.357083073485977 -0.7722580454738112  2.138954794843011 1.27826134552245 -1.461322978597557  2.21430121317591 1.125430026840617 -1.978367701180414  1.849683778569376 1.499823007194293 -1.976468527262274  2.065115728858664 1.178802618436534 -2.553270363025212  1.55102196917694 1.524313915023995 -2.680425189423589  -2.479063110771451 0.3790042699184047 -2.671179471179498  -2.505437729729187 -0.06800700418155209 -2.174848712512149  -2.452000982750172 -0.2876495203465623 -1.487252688431763  2.543797961242812 -0.4395772892973963 -2.660542741813252  0.06754204850049397 1.898289895061897 -2.548376393741573  1.282189087666485 1.564824205765042 -4.19736758717391  1.064543005886889 1.634230033845844 -3.370202327592846  1.620278622939434 1.383054213038801 -3.60821067753826  -2.436573352269372 0.3534364833809529 -3.421177482631374  -2.420354978149549 -0.126845389170498 -3.036851671281803  0.5821180297689098 -2.227049344934331 -3.784484214311364  -0.8634998802140439 -1.57388133872037 -0.5603115112607604  2.536341229570867 0.1961538994904405 -3.733639952699722  2.315779537615566 0.7515963943269072 -4.091790623228865  1.936811903864629 1.205793911289154 -3.065006252345257  0.1038505250532714 -2.26375183952431 -2.665041769601047  1.017875181726304 1.756432885788224 -2.602191178075064  -1.821602545037125 0.9610539543603616 -4.992893396206885  -1.466179173865768 1.042676671908182 -5.504003792478014  -1.666714159213119 0.5417664135278859 -5.584022838253911  0.4417133385690308 1.8114188258
[...]
<PointData  Vectors="f_5304682-0"> 
<DataArray  type="Float64"  Name="f_5304682-0"  NumberOfComponents="3" format="ascii">8.4158581320271278e-02 5.9667753892848785e-01 0.0000000000000000e+00  4.8515698659180484e-02 4.7255564322749821e-01 0.0000000000000000e+00  -4.9482007450933944e-02 5.6270143160902741e-01 0.0000000000000000e+00  -1.7986190434104732e-01 4.8294504589182352e-01 0.0000000000000000e+00  -2.9032562372981369e-01 3.7836811382883190e-01 0.0000000000000000e+00  -3.7655989191673322e-01 2.5115275835450879e-01 0.0000000000000000e+00  -4.3119070463110981e-01 9.4090166811753750e-02 0.0000000000000000e+00  -4.4431623302541740e-01 -7.6016688015592637e-02 0.0000000000000000e+00  -4.1338571559193182e-01 -2.5163680707381891e-01 0.0000000000000000e+00  -3.4166574074947664e-01 -4.1711311340247825e-01 0.0000000000000000e+00  -2.2090294705417596e-01 -5.4275299181197179e-01 0.0000000000000000e+00  -7.4954775714524607e-02 -5.9916735586546488e-01 0.0000000000000000e+00  7.2944662224962140e-02 -5.7390670414000344e-01 0.0000000000000000e+00  1.9740594723783952e-01 -4.8280601197068723e-01 0.0000000000000000e+00  2.7886409993657413e-01 -3.3586184586005552e-01 0.0000000000000000e+00  3.2060675703305958e-01 -1.6380701290143312e-01 0.0000000000000000e+00  3.3237890837086281e-01 2.2755426498431531e-02 0.0000000000000000e+00  3.2585858983110105e-01 2.1771151629245544e-01 0.0000000000000000e+00  2.7952326684500284e-01 4.0391215714855550e-01 0.0000000000000000e+00  1.9983111799280970e-01 5.3999187506196056e-01 0.0000000000000000e+00  -6.3954818549596226e-02 4.5427108601482058e-01 0.0000000000000000e+00  -1.4289989421329236e-01 3.8093000891158446e-01 0.0000000000000000e+00  -1.9303344858689289e-01 3.0119104734162022e-01 0.0000000000000000e+00  -2.2581468951506903e-01 2.2671850877936811e-01 0.0000000000000000e+00  -2.5578530936379124e-01 1.4545690538241535e-01 0.0000000000000000e+00  -2.6967232078051689e-01 6.9654860055491361e-02 0.0000000000000000e+00  -2.8523582938249831e-01 -9.7654403110571629e-03 0.0000000000000000e+00  -2.9060451999750908e-01 -9.0918867319368740e-02 0.0000000000000000e+00  -2.8687051131913716e-01 -1.7572317518635300e-01 0.0000000000000000e+00  -2.6072580831381620e-01 -2.6964669107394840e-01 0.0000000000000000e+00  -2.0807229210156233e-01 -3.4932326797467128e-01 0.0000000000000000e+00  -1.4322038733117232e-01 -4.1134314535743344e-01 0.0000000000000000e+00  -4.9444030722932360e-02 -4.4191559220586851e-01 0.0000000000000000e+00  4.2279163479611283e-02 -4.2962834268798894e-01 0.0000000000000000e+00  1.1912417561867414e-01 -3.7976293584502968e-01 0.0000000000000000e+00  1.7081715993042770e-01 -2.9764930986055477e-01 0.0000000000000000e+00  1.9421601464833624e-01 -1.9892225106115533e-01 0.0000000000000000e+00  1.8376169740813744e-01 -1.0346743433493293e-01 0.0000000000000000e+00  1.6078222963475169e-01 -3.2067664816306442e-02 0.0000000000000000e+00  1.4871281427407429e-01 2.7478414645050322e-02 0.0000000000000000e+00  1.6542065992323901e-01 8.2672172654852424e-02 0.0000000000000000e+00  1.9149598748313501e-01 1.7051326382932089e-01 0.0000000000000000e+00  1.9103576980349646e-01 2.9041791185941640e-01 0.0000000000000000e+00  1.3965446353963842e-01 4.1216098388125855e-01 0.0000000000000000e+00  -8.3954903040101739e-02 -5.8908105594720683e-01 -3.1560103517859352e-02  2.1655480204145199e-02 -5.9895996088833980e-01 1.0462487457402626e-02  -1.2054072947134356e-01 -5.9528726321477776e-01 1.3261590682010152e-02  2.3681123508139331e-02 -5.8099226778346258e-01 -3.6635409127755501e-02  -2.1902155145660662e-01 4.6949298416804314e-01 -1.6110313730121575e-01  -2.4543699867225172e-01 4.1038858966891195e-01 -2.0462726451020094e-01  -3.0630042231682802e-01 3.2261798177568446e-01 -1.4135191392709440e-01  -3.0703905955905147e-01 2.7312262467085691e-01 -1.9267314689055237e-01  3.4584911549502934e-01 -1.7565290668402772e-01 -1.0594113356800740e-01  3.5983348211092669e-01 -3.5783453266344002e-02 -1.4717726182590141e-01  3.5080951935900401e-01 -4.3444286105338459e-02 -1.0171405324860114e-01  3.0669989341989040e-01 2.3368110860117966e-01 -3.9096960836237364e-02  3.2868189349414056e-01 1.2323451400064654e-01 -3.5203539940609953e-03  9.5785130613640898e-02 5.8891475078244171e-01 -5.5136311382896409e-02  1.7099285102501974e-01 5.4486468768782337e-01 -6.3117868829787246e-02  -4.2248201502182847e-01 -1.7008955864491662e-01 3.1569390321020884e-03  -4.1429945903603183e-01 -5.7017359790786044e-02 -3.5886041024516431e-02  -3.9963325807130090e-01 -1.8554769649993519e-01 -6.8056215930073827e-02  -1.9559410687386386e-01 -5.4195289724378037e-01 -1.5165297270284234e-01  -8.8351759288052417e-02 -5.7198542972486099e-01 -1.5880862106893673e-01  -1.3458184486447886e-01 -5.6620899943400516e-01 -9.5084886409963487e-02  3.3729466709420819e-01 -1.6967529947428156e-01 -5.0636349576662507e-02  2.8619860409786829e-01 3.4790364106213778e-01 -2.1175303254820012e-02  3.0491677595480449e-01 -3.1854615043835960e-01 -6.0321623979622360e-02  -1.5040973356890422e-01 5.0028623258768745e-01 -5.5618213787178870e-02  -2.7282284691867520e-01 3.8215151336691666e-01 -4.0771193967968605e-02  8.5316211346700990e-02 -5.4371177306742680e-01 -1.0019366334167926e-01  1.1912156786986615e-01 -5.4978593536744114e-01 -1.7971172928077067e-02  -1.7032686371704311e-01 -5.5423801269471562e-01 -2.3698784526371239e-01  2.7162614740114377e-01 3.7729385513739316e-01 -9.1631351601272587e-02  2.2831556320250865e-01 4.7125286335559791e-01 -7.4861146707500686e-02  3.5155125466808818e-01 6.1301235601775132e-02 -1.4933822841034639e-01  -8.3458644237811089e-02 5.9177601661451851e-01 -1.7311422343519672e-01  -1.6594470736088884e-01 5.4029990727106292e-01 -1.9968204090332545e-01  -3.4233791370879990e-01 2.7422149437162313e-01 -4.5466162998241140e-02  3.4189815458206479e-01 1.7381464007962913e-01 -1.7788264726485839e-01  3.6217326223082907e-01 6.1114979665669054e-02 -2.0155439171835490e-01  3.4549552798442346e-01 2.4451128794948607e-01 -2.4191162091148716e-01  2.7814146347918850e-01 -3.6536278402024036e-01 -1.3113638278703824e-01  2.4212244186096010e-01 -4.1972772732606461e-01 -7.7991336561506378e-02  1.8779093065678445e-01 -4.6778640069383076e-01 -1.4267210423611076e-01  1.7343996909070949e-01 -4.9404196121508925e-01 -6.8267097373816671e-02  1.9606533150394423e-01 -4.4582365361232879e-01 -2.3418650020203671e-01  1.1419966687649218e-01 -5.1548789567473841e-01 -1.8208636531327752e-01  5.4313041818001520e-02 -5.3329378477910239e-01 -2.4733398145200894e-01  5.2553746385297313e-02 6.1026524200794185e-01 -1.3152060733959201e-01  1.3911203879925138e-01 5.8119284618574107e-01 -1.4204121665216080e-01  1.4212413255663026e-02 -5.6001301582635721e-01 -1.6564196983162377e-01  3.5202957322343681e-01 -1.8877623567857754e-01 -2.3445275267172555e-01  3.0819268147547507e-01 -3.0502697081799846e-01 -1.9072842185003383e-01  2.8949518443879596e-01 -3.3245617002305944e-01 -2.4303155993817310e-01  3.3567175840925306e-01 -2.4182655458591409e-01 -1.4849092373579259e-01  3.6706733772246303e-01 -4.8533981741993137e-02 -3.5996359259946903e-01  3.7270687697036986e-01 -3.2011464642843900e-02 -2.9050430888685891e-01  3.5603986902502721e-01 -1.5357334013855620e-01 -3.1648320111801476e-01  -4.4049427004090300e-02 4.7143457668885802e-01 -4.5945728214652093e-01  -6.5822174055008620e-02 5.0341343964450824e-01 -4.1216789917854219e-01  2.7217000039145761e-02 5.5555956908669590e-01 -4.0260415847750836e-01  -3.6588913093857117e-01 -3.2849698490156148e-01 -5.9257485259044125e-02  -3.2416305168770482e-01 -4.1852671208314463e-01 -1.3375457682513670e-01  -2.9366917160963446e-01 -4.6175834724171094e-01 -4.5209733946779677e-02  -2.4770623755915050e-01 -5.0573272279487957e-01 -1.0802389388250291e-01  -3.5522723565679581e-01 -3.8878195182334396e-01 8.8146412825515410e-03  -3.9726479230139744e-01 -2.7194022291586989e-01 -7.3895501082494892e-03  2.2101182069076622e-01 -4.6229763894046605e-01 -1.2479389810021209e-02  2.4054167181460395e-01 -4.4427096358463880e-01 1.5027532499314614e-02  1.4342362490222235e-01 -5.4585539436350483e-01 1.4883908986784803e-02  2.9888454565722034e-01 -3.3216765061030501e-01 -3.5133831262316798e-03  2.1883246099836648e-01 4.9965546719538373e-01 -1.6326284235570940e-01  1.1834947211404542e-01 6.1258591082130032e-01 -2.1183464158722828e-01  3.3394103172736606e-01 -5.2402609627712109e-03 -5.8280777128845804e-03  -7.3791340036637537e-02 6.1149299793063072e-01 -2.2294625171805563e-01  3.3539701657486642e-01 -2.4041325781579241e-02 -5.2199370418745498e-02  -1.4816613929728420e-01 5.2669699599487740e-01 -1.2555697905679325e-01  -2.1571525288724980e-01 4.5652189752369676e-01 -1.0003021065501007e-01  -2.8690475402810284e-01 3.5821719498111310e-01 -9.8664402263673040e-02  -1.8470968089904265e-02 5.8753886138265499e-01 -3.4222682587401454e-01  1.3056300212053493e-01 -4.5454073476374907e-01 -3.6548609984410324e-01  3.8982321268205583e-02 -4.8750919556291894e-01 -4.2690790979623472e-01  1.5807272356116184e-01 -4.2070718077184149e-01 -4.2281950593374978e-01  3.3476476024377844e-01 8.9109224665532061e-02 -1.0285489284820395e-01  3.3054391540437716e-01 -1.5227015956673512e-01 -4.3901797777101976e-03  -2.8129644407344950e-01 -4.8764089858837711e-01 -2.0843144680986217e-01  3.2199710562459416e-01 1.1461672327506076e-01 -5.2019243199092298e-02  -3.2949444377060938e-01 1.3921300410105517e-01 -2.3446356347591013e-01  -3.5398552181162096e-01 1.4988254663468031e-01 -1.6009994369271269e-01  -2.0181024722879345e-01 3.6409785069730188e-01 -3.5654955388865062e-01  -1.3291332403224862e-01 4.5212202615930380e-01 -3.9039129173107684e-01  -2.0291898825519111e-01 2.8041559990386444e-01 -4.2884573253341379e-01  -3.6031940453738409e-01 -3.7224070980365148e-01 -2.1867560444774872e-01  -4.1134740523245350e-01 5.5855624476905008e-02 -2.3824364448960481e-02  -3.9343282651336475e-01 1.5978541899412321e-01 -2.3687861679596307e-02  -3.6361313623232527e-01 2.0068740850064554e-01 -7.8770387857991772e-02  -3.7738012367831031e-02 6.1031578916457752e-01 -2.8004274164341281e-01  -1.5871815056752078e-01 5.1742911901098831e-01 -2.4639959895921690e-01  2.9811009832718647e-02 6.3211110417958216e-01 -1.9144911388189603e-01  -3.9149005366194550e-01 4.4820075834409903e-02 -9.3618326548635916e-02  -2.8791791187342805e-02 5.8169051356502899e-01 -8.2382664611299464e-02  3.0823799640503874e-01 2.3831009971794495e-01 -1.0152243275868393e-01  3.1849723447407491e-01 2.4061495471957464e-01 -1.4975958065277423e-01  2.8444299571940240e-01 3.6913231674748820e-01 -1.6613139361451085e-01  3.1482828635306698e-01 3.1856130707939978e-01 -2.0619509727343213e-01  2.5874950122107049e-01 4.7305820113878821e-01 -2.3510062575938967e-01  -3.6423448148053184e-01 4.0707999633588461e-02 -2.2297304208255744e-01  -3.8912957062500292e-01 -3.6924442999409890e-02 -1.8290037784981286e-01  -3.9800197984527397e-01 -6.6102374876388717e-02 -1.0648019328758600e-01  3.6237836231448689e-01 -1.0109498227179031e-01 -1.7744070276254326e-01  2.2334513239135507e-02 6.4191428031374120e-01 -2.3830155716462620e-01  2.1602357722578266e-01 5.2564304489461755e-01 -3.3236162091124288e-01  1.9244864681131432e-01 5.7421353710722767e-01 -2.8542796659463421e-01  2.7259582352545086e-01 4.6497546799458767e-01 -2.8748004335928545e-01  -3.5170213011057971e-01 -6.9200318100974606e-03 -2.9721097487833581e-01  -3.8985166943645033e-01 -1.0031438237613531e-01 -2.7406655881217623e-01  4.1246534979721125e-02 -5.1260090710281703e-01 -3.3373129858678097e-01  -2.5434576209219134e-01 -5.1547783361058674e-01 6.9048125961293063e-03  3.6895230471313689e-01 9.5287013118186173e-02 -2.6949432193399925e-01  3.4681597702507105e-01 2.3864391265948914e-01 -3.0120835371245536e-01  3.0928185432260208e-01 3.7294798646959371e-01 -2.4514212664152793e-01  -5.5116053904714656e-02 -5.6508682304269375e-01 -2.1490539949039300e-01  1.8240125424922896e-01 5.7492937174446423e-01 -2.3963733827252212e-01  -2.5470690767477455e-01 9.8108495707097440e-02 -4.2522703431434078e-01  -2.2644388760623668e-01 1.2713510951794851e-01 -4.6930445256623882e-01  -2.4808061448403407e-01 -1.1075324663147604e-02 -4.8595506758202051e-01  9.2074658836773279e-02 6.3721683920361916e-01 -2.6575571186601854e-01  -2.0267492114018740e-01 6.8513582581727239e-02 -5.2236898333453641e-01  -4.0236788438270976e-01 -2.2419489747017166e-01 -2.3782523607796385e-01  -3.2510306076607376e-01 -4.5624716791694397e-01 -2.9320354825110462e-01  -2.5508250638862812e-01 -5.1539359156144970e-01 -3.0420619173748226e-01  -1.9997234710357387e-01 -5.4517922273242159e-01 -2.8271943902979803e-02  -2.5486379377221768e-02 -5.7531889860537544e-01 -9.8589259343022956e-02  -2.8021470683286964e-01 2.5407855455035872e-01 -2.6074325112637042e-01  -3.9798923997447300e-01 -1.5305090015737399e-01 -1.4881914757691012e-01  3.1975617534611900e-01 3.4796848801302210e-01 -2.8111324650945280e-01  -6.2779500305959371e-02 -5.5460037715784627e-01 -2.9037428513156338e-01  3.7118010803706358e-01 -3.3080586359829585e-02 -2.3482740060348084e-01  -1.8821925577595572e-02 -4.2749054523300239e-01 -5.4701061698464426e-01  -2.1827920936515637e-02 -4.7755769912384849e-01 -5.0127390128765648e-01  -1.5446378433473357e-01 -4.6197913264694240e-01 -5.2352057613172287e-01  -1.3758984199950783e-01 4.9559595238295634e-01 -3.2021316896091651e-01  -3.9903314183190619e-01 -2.3509765212090006e-01 -3.3580972001777482e-01  -3.8247027888069351e-01 -3.6125599490659049e-01 -3.1990875536011587e-01  2.9795625956600019e-01 3.7894093317131439e-01 -3.3286028253056615e-01  -3.8306396662428388e-01 -2.7754203998955479e-01 -1.4261161062736238e-01  -3.6958901897599411e-01 -3.2989597879549853e-01 -4.1107159875352817e-01  -3.1953583668936753e-01 -4.5254391668436866e-01 -3.7705124378954963e-01  3.1131322468831918e-01 -2.7427279036940050e-01 -3.0810055714749462e-01  3.1608485121934921e-01 -2.3377960650822832e-01 -3.7707916654091284e-01  2.3488669033714943e-01 -3.6746825334326866e-01 -3.6347491272204530e-01  1.1213209641175741e-01 6.0086578813217728e-01 -3.3923969147303945e-01  5.9299590947729602e-02 -1.1457439337637867e-01 -6.1008028102443435e-01  -4.1269666532444044e-02 -1.0854351477002962e-01 -6.2094343229722360e-01  -5.8072452807944796e-03 -6.8508906910345621e-03 -6.1004885247634333e-01  1.7803406611138131e-01 4.4127059079325948e-01 -4.5069768521020920e-01  1.3374986035220712e-01 5.3932307579413741e-01 -3.9469713973466686e-01  2.3794982757073163e-01 4.3985288986267862e-01 -3.8755863044925604e-01  1.5819550790460249e-01 -4.5473789012346899e-01 -3.0929790714017225e-01  2.4341009188392843e-01 -3.8049685698279628e-01 -2.8911874832564344e-01  -2.2384165746161649e-01 -4.9069134106431794e-01 -4.4836688884051823e-01  -3.1073977394938102e-01 -4.2059578444591506e-01 -4.4640720184094357e-01  -2.5348283886336254e-01 -4.2577584224075593e-01 -5.0350376226679960e-01  -9.1751353381855735e-02 -5.2858268001704245e-01 -3.9631800894172442e-01  -1.6641445374233590e-01 -5.4444776478038737e-01 -3.2167622609281987e-01  -3.6781318050653034e-01 -1.8211114343017976e-01 -4.0580217845121075e-01  -3.7470213674480252e-01 -1.1653041020008868e-01 -3.4392396005215936e-01  -2.2515276452474342e-01 3.7285294457908541e-01 -2.8636981980786702e-01  -2.6613006302459780e-01 1.6917668931315860e-01 -3.5176089638056568e-01  -8.6626356976073057e-02 2.7632224699806673e-01 -5.6437232050822284e-01  3.1085277460674884e-03 3.9697645987422397e-01 -5.3888349577157280e-01  -1.2950023991755199e-02 3.0751933846434437e-01 -5.7650010616672032e-01  3.3517221727043817e-01 2.4617509395512993e-01 -3.5695260834571907e-01  2.5843581871376309e-01 -3.8446525889886390e-01 -1.9098118544800474e-01  3.5376086747970548e-01 1.1594200016333539e-01 -3.8095895653788675e-01  3.6785211181847510e-01 9.9839087425209153e-02 -3.2279189620946680e-01  -1.0783451997557933e-02 -2.1794878197908757e-01 -6.1189650206008916e-01  7.2644992291915705e-02 6.3140592244444027e-01 -3.0253850826588552e-01  -2.2433404930019876e-01 -5.1631871268503893e-01 -3.7838269705050909e-01  4.4400354554723367e-02 4.8184876487036482e-01 -4.7523258744069408e-01  -3.1111246886629035e-01 -3.4995131434411397e-01 -4.9356660653650325e-01  -3.2462171806414380e-01 -1.3105253290313972e-02 -3.6711574270391306e-01  -3.0529516260133638e-01 1.0256010468027231e-01 -3.0461191814039101e-01  1.0347599663937199e-01 -4.3012875939294620e-01 -4.8836263663129403e-01  -3.0415143753669893e-01 -7.1904826564050339e-02 -4.4444935671041363e-01  2.5617017058770558e-01 2.7377289650696790e-01 -4.7490635061222358e-01  1.7415159979356315e-01 3.0117939998512439e-01 -5.3359190021636183e-01  1.8825218874876737e-01 3.6949462527974508e-01 -4.9260708089562055e-01  2.3367611027462584e-01 -3.3650356575584561e-01 -4.3853710657792622e-01  -1.3352004186712008e-01 3.6872135621283142e-01 -4.6956120534108708e-01  -1.5088433991535155e-01 2.4432071973394384e-01 -5.2901861563537356e-01  -1.9009145477789299e-01 2.1878547801064688e-01 -4.8567149483626643e-01  2.9487776504392821e-01 -2.3744484040682393e-01 -4.2990740989095444e-01  2.7339440629559181e-01 -2.2936505429351026e-01 -4.6812975125244727e-01  -6.6201622151083953e-02 3.9100324858564112e-01 -5.1766797214720628e-01  -2.8876879591480981e-01 4.5938266713759009e-02 -3.9644983515024040e-01  2.8567193741057406e-01 3.0141791884624120e-01 -4.2043970236321526e-01  -1.9218765671266563e-01 -2.0507242138438830e-01 -5.8302133446069904e-01  -1.6999936552493430e-01 -5.9423497522804403e-02 -5.7755051472235619e-01  -1.1896840139647076e-01 -1.5220307683244805e-01 -6.0788770296573236e-01  -2.2931338708854096e-01 -1.0842188575705435e-01 -5.4161356840090991e-01  1.7827238741151863e-01 -2.1512745167763628e-01 -5.6494293330832301e-01  2.6124670397858402e-01 -1.6279199892782115e-01 -5.0795209982902478e-01  1.9067790394330805e-01 -2.8006022858780377e-01 -5.2970086280955386e-01  2.2505597463044671e-01 2.0601185023290020e-01 -5.2261206974717700e-01  1.5556030255955147e-01 -1.1934843155416343e-01 -5.8750801368916639e-01  9.0891903924463488e-02 -2.0363027204302286e-01 -6.0096737049309179e-01  -2.3988611037432186e-01 2.2007137756240200e-01 -3.9287705669718148e-01  -2.0558619038867104e-01 -3.1364265343078640e-01 -5.7236699680212266e-01  -1.2556707668555819e-01 -2.7236871020991194e-01 -5.9883694670241294e-01  -1.3364375275263207e-01 -3.8228285670058115e-01 -5.7122677280675027e-01  3.1044840082074787e-01 -6.9986147495512838e-02 -4.6597778808493617e-01  3.4313039787846017e-01 2.3238178848524128e-02 -4.2270163047569315e-01  3.3418912210531004e-01 -1.3483384284425129e-01 -4.1915480904175734e-01  2.8914893797649893e-01 7.7211389386625112e-02 -4.8634253060007976e-01  -1.5052349187836264e-01 1.2381050680364621e-01 -5.6671918558095868e-01  -1.0336330426783565e-01 -2.1506182251453478e-02 -6.0773059578362054e-01  -6.8411956203825397e-02 1.4462206920519130e-01 -5.9851276110395790e-01  1.9187930301523215e-01 -3.3612029817803629e-01 -4.9345220150591707e-01  1.0352667754832616e-01 -3.7920567648609965e-01 -5.3128108438832700e-01  6.7093018080977604e-02 -3.1680339552153408e-01 -5.7712502646049424e-01  -3.3459840449514017e-01 -2.3197271808544148e-01 -4.7104998176087831e-01  -2.7802074163834917e-01 -1.4064717583530922e-01 -5.0299196196329476e-01  -2.7084295624165633e-01 -2.6102989881370425e-01 -5.4011242138473026e-01  -4.8344387284195711e-02 -3.3626252902479609e-01 -5.8742878842010282e-01  3.0987100905916032e-01 1.6586293954318590e-01 -4.4478676984874865e-01  -2.3129856353467967e-01 -3.8013299324968952e-01 -5.4322674739700239e-01  9.6438148658473763e-02 4.2343564383156729e-01 -5.1296007849273939e-01  8.0388378523087084e-02 3.4469500760548871e-01 -5.6009095710505186e-01  2.9774681661382907e-01 3.3185382213778791e-01 -3.7790679659150694e-01  1.3542294823311365e-01 1.7225541893858062e-01 -5.7491725150685935e-01  2.9704253602926681e-02 1.6277437645546602e-01 -6.0683375874447865e-01  1.1265032280674984e-01 2.5895536865290153e-01 -5.7699529071089650e-01  2.2604131655500709e-01 -6.6830993384154241e-02 -5.5108336297664684e-01  2.1571387508971285e-01 8.3355454141505317e-02 -5.3987130289962504e-01  1.9050705305776159e-02 2.3922133787289532e-01 -5.9