<?xml version="1.0"?>
<VTKFile type="UnstructuredGrid"  version="0.1"  >
<UnstructuredGrid>
<Piece  NumberOfPoints="647" NumberOfCells="1944">
<Points>
<DataArray  type="Float64"  NumberOfComponents="3"  format="ascii">0.3229209954365792 2.059991313526123 -1.324822097210651e-15  0.4308715599880674 2.655327452122147 -1.321203653014401e-15  -0.3322371112107784 1.993115060898134 -1.319381549579301e-15  -0.9192262583868228 1.687496797301476 -8.785129619642812e-16  -1.373820855660879 1.206542553840964 -8.827942636384039e-16  -1.629285607288885 0.5936983146157363 -4.371780143014853e-16  -1.720248863970742 -0.05769798624367174 -4.364160273515642e-16  -1.5742853923935 -0.6847782217652039 -4.321287024896662e-16  -1.207974175175047 -1.214638750097553 -4.287461773599748e-16  -0.678118508423001 -1.593023804670707 -4.31638816563192e-16  -0.04841662523053958 -1.770244266162839 -4.37100473654043e-16  0.6063189003506382 -1.7042828584899 -4.417157941938115e-16  1.211238884627031 -1.447327286812909 -4.394151990963003e-16  1.693765887896516 -1.00706582685897 -4.413104181028479e-16  1.96800463868535 -0.4176296471882625 -4.45731945194214e-16  2.002078701856852 0.2306018058024743 -4.46134096318894e-16  1.839747803865332 0.8644322511500808 -8.993057341738368e-16  1.46137070340649 1.400834999150981 -8.795804040305649e-16  0.9336972892041668 1.81111575367068 -8.773029718581361e-16  -0.273940370972508 2.760614006084822 -1.29355692532379e-15  -0.980737273509069 2.618415429795941 -1.308078316611149e-15  -1.611533815713627 2.269263282224072 -1.31019965069724e-15  -2.124094052038872 1.756842838796481 -8.620596750638264e-16  -2.477363697465568 1.132229834019574 -8.86377659340431e-16  -2.678496745644752 0.4432793841270865 -4.340504114757823e-16  -2.719458606549895 -0.2719387162299745 -4.41005891395565e-16  -2.570748233106192 -0.9741826306473391 -4.411948904770903e-16  -2.259490108764728 -1.620063450350533 -4.088590377503287e-16  -1.811978609992229 -2.181325971872773 2.229315653926659e-17  -1.217455105039932 -2.596356923548635 2.226747106045908e-17  -0.5416525840172044 -2.848251759238486 6.668996758722555e-19  0.1795489527204999 -2.914702193533127 -1.48264374425481e-17  0.896376351138838 -2.819168895656321 -1.378470302822557e-17  1.575233606754277 -2.56353343445884 2.550100484145481e-17  2.167382672849635 -2.141547993594209 2.879543414789489e-17  2.642486025202583 -1.592834597968634 -4.465183697805742e-16  2.979290976062248 -0.9493899126896991 -4.200616953993357e-16  3.14820382899744 -0.2365153449235251 -4.332572397922212e-16  3.088749058554671 0.4932090595190281 -4.308821028283492e-16  2.796806301310075 1.162116838383599 -8.913102698737172e-16  2.324379751163233 1.712614347189685 -9.066780341855362e-16  1.738886732405672 2.126178965951048 -1.30076007315146e-15  1.098361460240999 2.428135814590505 -1.311515694026662e-15  -1.197256436932273 1.298225575560315 -6.181215044467338  -1.302989107229935 1.741097353478553 -5.629253223145713  -0.8677792232986147 1.886675092228514 -6.060842274390179  -1.931629761922092 -0.5273556602759145 -0.5483228336069228  -2.00420765442881 0.1018195287160406 -0.6891837566364872  2.329229701327431 0.0480081964654508 -0.801921578193607  2.210571659930016 0.6830884759577104 -0.8691088299215689  2.183351324309789 -0.4542334838699431 -0.5468714363690956  2.372373111164345 -0.3522943943426805 -1.125522529186621  2.166378659339912 -0.9177619415630122 -1.100718395536149  -1.264155968911364 1.480951507809574 -0.5387890661373951  1.638376146149767 -1.508343304804365 -2.858502181353755  1.755646224564296 -1.563445344560846 -2.195706131325698  1.223638660854992 -2.037195957786696 -2.328263675567323  -2.356838732320882 0.4655567110740072 -2.159048321462725  -2.311464573983153 0.1682004628533337 -1.546016162045496  -2.114862552361178 0.7685495713198269 -1.70504016689068  1.519434675178263 -1.816835209424737 -1.578197527543837  -1.930286885956115 0.6239691514961376 -0.9486731240899451  0.7824001625960572 1.977150323557667 -1.102487605516516  0.7655939503444997 2.024270828952363 -0.5378009123188199  1.173928094535341 1.818954774438892 -0.6591872462132752  2.031282563815776 -1.245021257647077 -1.762795350365336  0.5875683319305521 -2.126093171902711 -1.144555485728505  -0.01252721743987814 -2.216357851107535 -1.189812566354773  0.2969004647073089 -2.306409574494234 -1.672718952393079  -0.271766395394834 2.269176731943227 -5.815761154302212  0.4834081504277695 2.285089375697264 -5.810885860610528  0.2261847248613341 1.972757637341755 -6.568004968092632  -1.593172313912 -1.683363530045401 -2.556501360741505  -1.475949696439644 -1.812771400606512 -1.947277355515636  -1.837682536971459 -1.478708160988644 -1.922024325370118  -1.078581503592023 -2.05808346844307 -2.466191234375843  -1.607833272243969 1.319794076005244 -5.483694412612412  -1.268951133865815 1.532677244902339 -1.188140935452437  -1.706690946841515 1.32094136256763 -1.881401579710139  -1.703487391262249 1.121074176678652 -1.237078046465685  -2.241794250685654 0.8813308997333927 -4.048712845579814  -2.155927463841872 1.355666021541525 -3.783168605241736  -1.963094096480558 1.331343668301587 -4.569164776771911  -2.345767838571381 -0.5075464287203717 -1.926352540267992  -2.217294883307495 -0.3654687846340754 -1.142557775081733  -2.420908161986849 -0.003474799059536366 -2.359423308277549  1.853629175962712 -1.11084029064394 -0.4945033279332155  -1.673813138955726 -1.158536370670234 -0.6053951997460818  -1.11061694186709 -1.72245993448308 -0.6774816628978962  -1.6838237223539 -1.542708336553841 -1.312426452098185  -2.000658808194491 -0.9905305111570807 -1.034353259490904  2.040910270865267 -0.9785646527688718 -2.447960269155214  2.288999954716417 -0.6495438331446772 -1.750937105527636  -1.212904412380505 2.055626594816255 -3.156129446376684  -1.550047659725734 1.71644755785749 -2.571889289307608  -0.9041266418500389 1.884320619119899 -2.343772949170726  0.7080188486549217 -1.631362093049818 -4.959052596822016  0.4332310258471395 -1.973428455209699 -4.263612791257872  -0.02545022816726727 -1.789809633923686 -4.742630316461578  -1.158293846528221 1.659986463468333 -1.861196758351015  1.836252011311131 1.450073473613601 -4.590836798896836  2.14972712566288 0.8716360658442009 -4.432580937698949  2.223008414421891 1.022243241191932 -5.093815989744514  -2.312228968319883 -0.4725042468778002 -2.780857502738835  -2.061236934585613 -1.125665636994163 -2.46631482896942  -2.119938727255645 -1.047236051523968 -1.625938595504225  -1.232815477448434 -1.865579373920504 -3.272452301665829  -1.73935240767857 -1.404040306936492 -3.175120330250716  -0.3322727584155163 -2.247506650432884 -3.469850756495454  -0.4149116727975567 -1.991211552378325 -4.142135020921727  0.2576313483302797 -2.210006520203319 -3.654073842824887  -0.09915603003077225 2.070227636625985 -3.0164014494205  0.3883458845621341 2.058049064234743 -3.600665045887309  -0.2241893709250843 2.270917179717009 -3.731469351049209  1.921810691125597 1.056216740931206 -3.964417448673235  -0.1855336438526601 2.086714225051867 -0.7848169206550673  0.02664704564826351 2.003306306863755 -1.39528410984888  -0.6442790863760868 1.836925971331892 -1.540319392478519  -0.1819842038895058 1.896630693725259 -2.162020525393865  -0.3228716058992911 -2.264536913023567 -1.677300099412278  0.0568350392441684 -2.390191041094248 -2.390692672443916  0.9634275410434232 -2.165168353386403 -1.667903613253577  0.6862394809735322 -2.292550547323104 -2.224312965650514  1.050647559422368 1.775620305423659 -3.768716618969069  0.8823412922196225 1.678095263956361 -2.99672685409893  -2.151821139654948 1.087880557261744 -2.462421513702348  1.804773755167469 1.268589609187554 -1.478243427705245  1.333825323664389 1.435038991429221 -2.292309822724548  1.143857629001798 1.72673156290874 -1.532571955969915  2.222064368125882 0.6295150780736433 -1.698648176483959  1.870328443334817 0.9108936935445169 -2.327964903766711  2.128100331064215 0.3269178257062005 -2.476518365284266  1.44680615114033 -1.533118616849638 -3.661884449177616  1.822857262548878 -1.010383321181448 -3.346419878163779  2.045338286654083 -0.2987244322879458 -3.153887867870825  2.242465890859449 -0.2743678315256238 -2.247136602250465  2.371123807576327 0.08491814319271247 -1.594520772708516  0.8182744095331506 1.710099750180203 -2.301113077547275  -2.422330797043365 0.5137642473904815 -2.72199426783679  -2.377634977106374 0.8166007071858021 -3.294161692645122  -2.381360004260483 0.08671435297269109 -3.148296859610309  -1.025556386867031 -2.045939232593739 -1.597669374264569  -1.590849052741977 1.083375850574171 -0.6256602374532739  0.1772484707028817 -2.007036884450051 -0.6392040226507565  0.8601093764566358 -1.843548072602535 -0.5817860726483823  1.840937477614987 -1.392604530786698 -1.128534664033962  1.553694694075957 1.55632859995573 -0.8912043754814347  -0.3868671039682069 -1.977520807225962 -0.615439830723682  0.2372274554361889 0.7102198109386229 -7.23127311007538  -0.3125125175195972 1.181504309237422 -6.955465708505124  0.2974436674568655 1.399993735890467 -7.142713080106452  0.2580898318837186 2.296016166757763 -4.36553494329202  1.844132901861732 0.7875960937518893 -3.238776875721066  1.112883858882497 -1.951189991501178 -1.180501421891473  1.409095948078759 -1.640848659462461 -0.7811076066940814  -0.771165174171905 1.873522214142627 -0.6875134750193519  -0.6133724852494619 -2.102283601560766 -1.126476730148695  -1.324654996627307 -1.208832674635887 -4.472616798605388  -1.799883703614195 -0.6725479738489444 -4.271490499479716  -1.532913258519007 -0.5467251498026268 -4.923064201914237  -2.097607082842808 1.401507608861081 -3.055489956096536  0.3647636792226276 2.115632172771491 -0.9664421425898485  0.5058499185814206 1.898983366741292 -1.751604096566269  -1.793234653489817 -1.022783155351369 -3.808423898013517  -2.059564491445031 0.5268211403220778 -4.59281641017286  -1.805467697119095 0.7278009978952358 -5.222784248081497  -2.273209667154354 0.2886134884777907 -3.835384459485228  1.203519703847638 1
[...]
<PointData  Vectors="f_4093915-0"> 
<DataArray  type="Float64"  Name="f_4093915-0"  NumberOfComponents="3" format="ascii">8.9208400824460285e-02 3.8108636854493921e-01 0.0000000000000000e+00  4.2737021239956451e-02 2.9699373969491327e-01 0.0000000000000000e+00  -4.0992977364864999e-02 3.8221477287563338e-01 0.0000000000000000e+00  -1.6282685959064025e-01 3.4226953267941040e-01 0.0000000000000000e+00  -2.6481081744729501e-01 2.6177550220297457e-01 0.0000000000000000e+00  -3.3976026511487262e-01 1.5254635911481909e-01 0.0000000000000000e+00  -3.7235912826535367e-01 1.7627819882545324e-02 0.0000000000000000e+00  -3.6646253072088109e-01 -1.3296178731708641e-01 0.0000000000000000e+00  -3.1841293198242465e-01 -2.7689903960887519e-01 0.0000000000000000e+00  -2.2607326418066856e-01 -3.8804653905341746e-01 0.0000000000000000e+00  -1.0172147514954942e-01 -4.4952451598307996e-01 0.0000000000000000e+00  3.2640082768149233e-02 -4.5560403580944170e-01 0.0000000000000000e+00  1.5390001922523172e-01 -4.0318203255587731e-01 0.0000000000000000e+00  2.4800033855038953e-01 -3.0128564662215979e-01 0.0000000000000000e+00  3.1298184612889113e-01 -1.7076322695883839e-01 0.0000000000000000e+00  3.4502119027537981e-01 -2.4863193671168467e-02 0.0000000000000000e+00  3.4051519732544538e-01 1.1984490449236986e-01 0.0000000000000000e+00  2.9416606736103407e-01 2.5013010810644665e-01 0.0000000000000000e+00  2.1148760466366276e-01 3.4034664173734996e-01 0.0000000000000000e+00  -4.1140532661397756e-02 2.7328111056406817e-01 0.0000000000000000e+00  -1.0378292961727578e-01 2.3772126768629959e-01 0.0000000000000000e+00  -1.5604663138676583e-01 1.9439030180223948e-01 0.0000000000000000e+00  -1.9151209198691385e-01 1.4476558703101930e-01 0.0000000000000000e+00  -2.2777096426008447e-01 8.7199718773288165e-02 0.0000000000000000e+00  -2.4901676957544205e-01 2.3370538747185050e-02 0.0000000000000000e+00  -2.5063316806581243e-01 -4.2358531072933088e-02 0.0000000000000000e+00  -2.3992899441498575e-01 -1.0579647628101913e-01 0.0000000000000000e+00  -2.2207040641913356e-01 -1.7155088332622243e-01 0.0000000000000000e+00  -1.8172552213853582e-01 -2.2848193682308807e-01 0.0000000000000000e+00  -1.3697179838430243e-01 -2.7088168394789758e-01 0.0000000000000000e+00  -7.7451367963009346e-02 -2.9592479052676046e-01 0.0000000000000000e+00  -1.6375023145193221e-02 -3.0685191090525987e-01 0.0000000000000000e+00  4.5532985347304412e-02 -2.9213293782318661e-01 0.0000000000000000e+00  9.8786234493706659e-02 -2.5980662528412285e-01 0.0000000000000000e+00  1.3854651847850485e-01 -2.1159925620536563e-01 0.0000000000000000e+00  1.6653754896359718e-01 -1.5704034399545258e-01 0.0000000000000000e+00  1.8255013029222314e-01 -1.0029635656982097e-01 0.0000000000000000e+00  1.8961361794235157e-01 -5.1942177825579389e-02 0.0000000000000000e+00  2.0056855160790868e-01 -5.9373665758294071e-03 0.0000000000000000e+00  2.1671166060807384e-01 5.5088886503222689e-02 0.0000000000000000e+00  2.2032150147395521e-01 1.3402106473975420e-01 0.0000000000000000e+00  1.9392102533623742e-01 2.1863187036713511e-01 0.0000000000000000e+00  1.3090396531542689e-01 2.8104145411976550e-01 0.0000000000000000e+00  -2.0760730607415281e-01 5.5813548677574550e-02 -3.6119391402824191e-01  -1.9556186486699842e-01 1.3825740591605418e-01 -3.0280205402431054e-01  -1.4693963963022147e-01 1.6656029536736727e-01 -3.2017394837499846e-01  -3.6550335827268132e-01 -9.5567555479548580e-02 9.7765586515642725e-03  -3.6106073547656936e-01 3.3427577259720578e-02 5.4976561854992237e-03  3.2663220985424196e-01 -3.0124963565388917e-02 -1.8376402710715837e-02  3.2352371266210495e-01 8.7851942859999657e-02 -2.6946995802783869e-02  3.1648480837503423e-01 -1.4061904537817924e-01 1.4727853580099543e-03  3.1397926809500737e-01 -9.3607141483779396e-02 -4.1567345335849354e-02  2.9206762077009935e-01 -1.9960007658596737e-01 -3.6052222934439992e-02  -2.3249608743526123e-01 2.8895692906849307e-01 -7.0811163825913893e-03  2.6765984294322687e-01 -2.5496713468740745e-01 -1.6976590042851877e-01  2.5432353512679862e-01 -2.7056766377861130e-01 -1.2323910576430294e-01  1.6867988429615915e-01 -3.3785025722367668e-01 -1.3305065863700094e-01  -3.2827872700092187e-01 5.2482577992778119e-02 -9.6745629339291594e-02  -3.3890155847027226e-01 2.6845752241933852e-02 -5.3152172822626589e-02  -3.0760051959809309e-01 1.3447567522869747e-01 -5.5234450445499732e-02  1.9711811388025219e-01 -3.3156345437700441e-01 -6.9823449765300097e-02  -3.3144164582475522e-01 1.3216824041211073e-01 -8.8763212030624726e-03  1.4580093569655922e-01 3.6562084199207850e-01 -5.1335131341713615e-02  1.4996046782208039e-01 3.6142128857908240e-01 -1.6119932386059972e-02  2.1546968569299033e-01 3.2536388432565860e-01 -2.2324129034712373e-02  2.8002371939929294e-01 -2.2835010717639365e-01 -8.7955509316750544e-02  4.8165773341796538e-02 -4.2779327041408244e-01 -2.7660465472361190e-02  -5.1692177247787401e-02 -4.3233838525527762e-01 -3.1822928271504965e-02  3.2502794118816234e-03 -4.1543764834071478e-01 -7.2096914520806479e-02  -5.9107402642723669e-02 2.6846041049029884e-01 -2.8506786974204745e-01  4.0303983937714748e-02 3.1581272260400195e-01 -2.7117238271258537e-01  -3.3034305685040913e-02 2.2314230770506321e-01 -3.3612099709011123e-01  -2.7693385697163059e-01 -3.1196898450167859e-01 -1.5795260956699889e-01  -2.5689991319572369e-01 -3.2749754269645842e-01 -1.0065414308601257e-01  -3.0317715156454461e-01 -2.6841508453510882e-01 -1.0030486572594716e-01  -2.0206851652175095e-01 -3.6449744455334637e-01 -1.4542706143439346e-01  -2.4721265532410519e-01 6.6663793694814885e-02 -3.1618060709900403e-01  -2.0725287048096569e-01 2.9913524043596518e-01 -2.8506719180296496e-02  -2.4278683110660623e-01 2.4092939627508408e-01 -5.3645272891498653e-02  -2.7853016679240838e-01 2.1979184255115577e-01 -2.4112292696008827e-02  -3.1381052294372130e-01 2.6015096284172284e-02 -2.3980429460121622e-01  -2.6904073760451380e-01 1.1412984153940404e-01 -1.9923949907608532e-01  -2.7072105277239694e-01 8.6330630875174133e-02 -2.6032068939040437e-01  -3.5038760982837747e-01 -1.0446876384237133e-01 -9.5061509936945482e-02  -3.5331487157337266e-01 -5.9621617036118950e-02 -2.6370003413541176e-02  -3.5125716763425097e-01 -3.8806037157601544e-02 -1.2407151438587720e-01  2.6173948920801204e-01 -2.7516546917649276e-01 1.1275702191872255e-03  -3.3211268437518432e-01 -2.3075923156006786e-01 8.3498252266664304e-03  -2.4723567418365594e-01 -3.5845374838129723e-01 2.0557642246611121e-03  -2.9172809657579940e-01 -2.8272854910049011e-01 -4.2814925674485277e-02  -3.3929159190061764e-01 -1.7779074532435635e-01 -1.9884169768620105e-02  3.1722695499645009e-01 -1.7066017381570675e-01 -1.3923082202396317e-01  3.1713453989871215e-01 -1.2822326850955976e-01 -8.9400147540232219e-02  -1.2173726178163041e-01 3.1321030828160595e-01 -1.1466097279696937e-01  -1.8670763320920497e-01 2.7386723278115999e-01 -8.7250672313349223e-02  -9.6339618104450242e-02 3.5597070325945901e-01 -6.7681615724282287e-02  9.1097006542118664e-02 -2.7796959894995904e-01 -3.0673577935564150e-01  5.7792867730470959e-02 -3.1825783457618367e-01 -2.7463623857623093e-01  -2.6918168214230365e-02 -3.1668819203384291e-01 -3.1769316344355525e-01  -1.6153361302323857e-01 3.2483730060111615e-01 -5.1245605345621059e-02  2.8323776803402356e-01 2.5652325979347801e-01 -1.6053051201397628e-01  3.1916010259895744e-01 1.3879187602224552e-01 -1.6212406305613261e-01  2.9431199865244173e-01 1.5576066573601202e-01 -1.9386763625143152e-01  -3.6470201056217294e-01 -1.3389161988027926e-01 -1.7123310702681238e-01  -3.3676638858762237e-01 -2.2472325944007771e-01 -1.5045943218634145e-01  -3.3445284156904392e-01 -1.8747908663079965e-01 -7.2369770495480101e-02  -2.2732039799604142e-01 -3.3744799978471202e-01 -2.1887045156352217e-01  -3.0744972390227593e-01 -2.8380094028573172e-01 -2.1591606080814485e-01  -7.0912039376608282e-02 -3.5949589145802169e-01 -2.2598194832722676e-01  -8.5718506203158407e-02 -3.4072015384978638e-01 -2.8257716170292613e-01  3.0262915910370381e-02 -3.4457212220167904e-01 -2.3577053672095930e-01  4.8466377259497567e-02 4.0526334896133759e-01 -9.3294004245456502e-02  1.2780957728226336e-01 4.0658616804503211e-01 -1.1397920719277374e-01  2.6325681368087182e-02 3.8967300000721511e-01 -1.3102802064805397e-01  3.1498453608621235e-01 1.9719092933152890e-01 -1.3661046765124879e-01  -2.4925998056832127e-02 3.8103281730001037e-01 -2.7789582205935408e-02  1.7196483367572592e-02 3.9272451989155405e-01 -5.7881781957251084e-02  -9.1898863700603323e-02 3.6964834312268646e-01 -4.9855058583767639e-02  1.1088926379742747e-02 4.0137773477094768e-01 -7.2638197952941977e-02  -9.6113107651152427e-02 -4.1529192286961758e-01 -7.2287217426683745e-02  -2.4167436717844628e-02 -3.9170817005123243e-01 -1.3445313136625378e-01  1.0863048202154738e-01 -3.8384401631050313e-01 -7.5360710997151692e-02  7.4269558406151751e-02 -3.8029995487339902e-01 -1.2195325047034689e-01  2.2148624394276756e-01 3.6856642748082896e-01 -1.1924892923198305e-01  2.0711731284217516e-01 3.7448828471199080e-01 -1.0392657953366174e-01  -2.8248696215513214e-01 1.4789363613672965e-01 -1.0201986087348450e-01  2.8615551010705575e-01 2.2977717646027210e-01 -7.2522439415983450e-02  2.5092344933923477e-01 3.1351264787492467e-01 -1.0463987108002416e-01  2.0759995136069628e-01 3.3937783290550888e-01 -7.4758773409305188e-02  3.2049861249638162e-01 1.0348868340803642e-01 -8.4255864534901942e-02  3.1390291074083193e-01 1.9251094970249616e-01 -1.1575013708846396e-01  3.4006855963527172e-01 6.8419648807044930e-02 -1.2619886094048169e-01  2.4478519586770298e-01 -2.5352105167958333e-01 -2.1362843156392353e-01  3.1880473344379545e-01 -1.7437035908698634e-01 -1.8307082463793733e-01  3.5172262646930424e-01 -5.0785912313055397e-02 -1.5813436061589606e-01  3.3892231816563267e-01 -4.8527200409658348e-02 -1.2303190596137052e-01  3.2896294549477156e-01 -2.1998080967335991e-03 -7.7432517768792564e-02  1.7883326115938697e-01 3.7798108676648179e-01 -9.5013294353324979e-02  -3.2921175342796138e-01 3.0049200293466454e-02 -1.4106692470678453e-01  -3.1536810904536117e-01 4.8330972396291125e-02 -1.7905113407455683e-01  -3.6064208731928260e-01 -6.3035210704025180e-02 -1.9155014956789418e-01  -2.0018379608269807e-01 -3.7648104130171434e-01 -6.7073931402443387e-02  -2.9331446656691040e-01 2.1882175436651199e-01 -3.9030561386152072e-03  -2.7411534734374833e-02 -4.5332458528538994e-01 3.4239050184683060e-03  9.4328666133313713e-02 -4.3117801657273175e-01 1.8873785798763580e-03  2.4824439502314008e-01 -2.8737356551820431e-01 -3.5012698145649439e-02  2.6146811326360631e-01 2.7239297739888091e-01 -3.3990412348553115e-02  -1.3064236607209323e-01 -4.3291332965229268e-01 2.6132486465940182e-03  -7.4138718947206278e-02 -2.3754776829592737e-03 -4.3894591517107850e-01  -1.2425394160363845e-01 5.6907648871842333e-02 -4.1018319287773819e-01  -6.7284946559247674e-02 1.1936809903176412e-01 -3.8138471860595569e-01  8.0710512777697876e-02 3.9247690582125788e-01 -1.6169720395977497e-01  3.2870004918401824e-01 1.7255808399437000e-01 -1.2830962531568746e-01  1.3454103602862350e-01 -3.9133833060217321e-01 -3.3276888659227323e-02  1.8794311250116780e-01 -3.6612988861428458e-01 -9.3059279209880674e-03  -1.3363795887598889e-01 3.5117326281589145e-01 -1.9857391823145162e-02  -1.5113362613015641e-01 -4.1255551177596528e-01 -2.7470090726957063e-02  -2.6782074386912696e-01 -2.8601730374593276e-01 -3.2919884744422567e-01  -3.4164526982702520e-01 -2.1763806554796400e-01 -3.1183115645593606e-01  -3.1108980631142219e-01 -2.1561708271366314e-01 -3.6140335878244279e-01  -2.5556117930710931e-01 1.6123073086287326e-01 -1.3872236213366032e-01  7.1081745458669382e-02 3.7946211073813912e-01 -3.9779029573274602e-02  1.0772805135930417e-01 3.9104911431566225e-01 -7.6936709979474480e-02  -3.3282504718470840e-01 -2.4994600678879345e-01 -2.7385963975420197e-01  -3.3496912989261324e-01 -4.6790653585687486e-02 -3.0004521746181184e-01  -3.0186525424275684e-01 -2.6836285031992046e-02 -3.3359903567286836e-01  -3.5737620266104603e-01 -6.1320634557593914e-02 -2.4678629586418094e-01  2.5394402508378811e-01 3.4116693728746278e-01 -1.1024746783326693e-01  2.8522622006279980e-01 2.8727305674438791e-01 -1.1545897941414576e-01  2.8431952474741418e-01 2.8741979315050126e-01 -1.2325471651680524e-01  3.0651185135430536e-01 1.9439519302924591e-01 -1.3994441979950598e-02  3.3746722696524839e-01 9.6930247507087466e-02 -1.4720928981065198e-01  3.2688838286992877e-01 1.6068207856788676e-02 -1.8459810245834046e-01  3.4399242341156550e-01 6.3859697599105925e-02 -1.4355267393047613e-01  -3.7168506806665225e-01 -1.5044842031160677e-01 -2.4866141867463012e-01  -8.9361197829088052e-02 3.2144637661954517e-01 -1.6493396924269740e-01  -4.0541366170367965e-02 3.6554816767499076e-01 -1.1756994214035098e-01  1.9296799572022880e-01 -3.0820924751645257e-01 -1.8630856190119791e-01  1.4112949883516243e-01 -3.1658153465180899e-01 -2.2640226780283862e-01  9.2372772445093551e-02 -3.5395832064790178e-01 -1.7896075498884878e-01  -3.5612127237328028e-01 -2.0855361167296146e-01 -2.2281327104991486e-01  1.1638363697128493e-01 4.0447304498693293e-01 -9.0194372300169828e-02  -1.9905592270470962e-01 -3.2817516339368497e-01 -2.8652032592215521e-01  -1.5434485461430389e-01 -3.4952962692262385e-01 -2.4187973107087610e-01  -2.7485695888203177e-01 -3.0261680077821079e-01 -2.6592574337744901e-01  -1.0200765210543931e-01 -3.8141729549896786e-01 -1.6617031780001862e-01  -8.9215657458160177e-03 -3.7134103348532110e-01 -1.8854636437418162e-01  1.9727317294431282e-01 1.9585883462118275e-01 -2.7400580568300514e-01  2.3267881382314193e-01 2.7048495125874067e-01 -2.1616793751648167e-01  2.5210019590037275e-01 1.6739345447136997e-01 -2.3928741540615225e-01  -1.5453768556804276e-01 -3.6359420360108397e-01 -1.9857932143486343e-01  -1.5072177977871309e-02 3.5707560516380477e-01 -1.8188274495985896e-01  -2.1861706903892653e-01 -5.8212834479784807e-02 -4.1701661165327386e-01  -2.6192561021358973e-01 -1.8207498932883256e-02 -3.7000669697714017e-01  -2.2281966404697262e-01 -2.6678535039416151e-01 -3.8316619642233957e-01  1.4813512301022297e-01 1.2448208954820011e-01 -3.1325894596222276e-01  1.3355360672219310e-01 2.0548401508940140e-01 -3.0630692190734471e-01  2.8579766732099593e-01 6.0472633017403070e-02 -2.2782030297787334e-01  -1.3147979874124399e-01 -3.9683763264257638e-01 -1.1314911436654257e-01  3.4596829499634996e-01 7.1218970064266737e-03 -1.5936235520016764e-01  -3.5721587963409163e-01 -1.4320061490777602e-01 -3.1101735452546181e-01  -3.2384040078822185e-01 -1.2990582447324653e-01 -3.5954805163659226e-01  -1.4200531000176456e-01 -4.3698863672366771e-02 -4.4448596136070473e-01  -9.4090007506457587e-02 1.4608198534015535e-01 -3.6826604654496531e-01  -2.0381532915319245e-01 2.2176665584137117e-01 -1.4584624630454562e-01  1.7288113023796983e-01 -2.6602337545538901e-01 -2.6370044080164534e-01  -1.6036126802043432e-01 -3.1642838603964429e-01 -3.3378251041509505e-01  -1.4649429832794486e-01 1.0641355508563934e-01 -3.6755151984538498e-01  8.8500800614387393e-03 -7.0239442843639241e-02 -4.2348336236681866e-01  -7.6052144752065939e-02 -1.1044177157291751e-01 -4.5195197380127811e-01  2.1479097155902574e-01 3.4145074284081839e-01 -1.7432947861518838e-01  9.8286690994580338e-03 -1.7341068665333675e-01 -4.1276348249867534e-01  -8.5655768177724453e-02 -1.9346058194613588e-01 -4.3326938104412277e-01  -3.8749194027957713e-02 3.7880380798775681e-01 -8.3858013639820816e-02  -1.8171402188599184e-01 2.1999693164778489e-01 -2.1554491625787872e-01  -2.0108417444612017e-01 1.7405390208303587e-01 -2.6109017005564394e-01  -2.1944445028349871e-01 1.7745300410772050e-01 -2.0182926106223589e-01  -1.5597813673891955e-01 2.6135846312730454e-01 -1.6524382414340280e-01  2.7791327674765770e-01 -1.8794667763639980e-01 -2.2504548795313886e-01  3.3608813124421183e-01 -9.2350976961143347e-02 -1.8332280330140041e-01  3.0954484175970409e-01 -9.4658036435097737e-02 -2.1036202285117278e-01  2.5423841632668870e-01 -1.4458640529526673e-01 -2.5272370937075100e-01  -1.8635074357105696e-01 -2.1618466642574505e-01 -4.2458318933358946e-01  -1.1748301449680068e-01 -2.6063616625187858e-01 -4.0333560523566858e-01  1.8133152846749798e-02 3.5033725944238109e-01 -2.1974197300581433e-01  2.2636176997029464e-01 9.9425229643492735e-02 -2.7366441406376441e-01  1.8742444188501914e-01 4.6509421785011086e-02 -3.0514339176673000e-01  3.0450850961988383e-02 -2.6783134530462693e-01 -3.5113305702445308e-01  1.0738459633614164e-01 -1.7008341024118731e-01 -3.5732107852380890e-01  5.1440635341532308e-02 -2.2030282033252513e-01 -3.7188475805705329e-01  1.1472068900515825e-01 -2.2387950581236218e-01 -3.3106437451620757e-01  -5.3758076990970724e-02 -2.8457461655505789e-01 -3.6996033472322309e-01  9.9418341388958026e-02 -9.1824409138261898e-02 -3.7699187664424255e-01  1.9129012879248242e-01 -2.1598937228638296e-01 -2.8241185006758823e-01  1.8006619687913575e-01 -1.6615846093272679e-01 -3.0565861920378185e-01  2.8493879060637450e-01 -5.0767675323199264e-02 -2.3408764427702630e-01  1.7865870069090051e-01 -3.9390923007059972e-02 -3.1906794951603623e-01  2.3259299160948441e-01 -8.7107222254507372e-02 -2.7795093823273498e-01  1.5964872942416350e-01 -1.1457926727120996e-01 -3.3061672427916317e-01  -1.1816509691912074e-01 2.8187156490032039e-01 -2.1311696697121299e-01  -2.7135413238971073e-01 -2.0097819560732666e-01 -3.9872495604917557e-01  -2.3086839395603456e-01 -1.4925259786753414e-01 -4.2645297244735542e-01  -1.3709076101750794e-01 2.2823287383472038e-01 -2.6977413933874322e-01  -2.8124913880616503e-01 -1.0323836507418079e-01 -3.9348982720991693e-01  -2.7412981506418584e-02 -2.4269627608870148e-01 -3.9575373942140424e-01  1.1891318013287827e-01 3.6967608261070978e-01 -2.0370343214061046e-01  2.4643277319827872e-01 -8.7936009201906537e-04 -2.6850053984528488e-01  -1.2054489932780331e-01 -2.9591223088406637e-01 -3.6581367741259591e-01  -7.3700782898398987e-02 2.9702349313048804e-01 -2.3778668604342551e-01  1.6852840481394604e-01 3.8826018890958525e-01 -1.4698813084876514e-01  1.2921888029669171e-01 3.1910514350797498e-01 -2.5667383006687045e-01  2.3760261975594846e-01 3.4207971914627389e-01 -1.4291980955899547e-01  -1.6082797252346584e-01 -1.3229685903415001e-01 -4.4750128780790210e-01  7.0736917612505223e-02 1.6720201071746493e-01 -3.3657170507194556e-01  1.8038220725944273e-01 3.3526418957842052e-01 -2.1217545177438021e-01  9.3792948851569094e-02 2.5014167096506290e-01 -3.0796611082120579e-01  -9.7167747884402841e-02 1.9106518920127555e-01 -3.3788957250384466e-01  -1.7585906101321680e-01 1.3780567184837604e-02 -4.0593394995433046e-01  1.4506976548433947e-02 1.9384605817506784e-01 -3.4704832753081982e-01  4.7560030412157846e-02 2.7298038778359329e-01 -3.0903426043307769e-01  6.2896333372607777e-02 1.1285371499855845e-02 -3.7208499483275020e-01  1.2911639289143001e-01 3.1290651397136181e-02 -3.3510199911245730e-01  -4.4397989176073677e-03 2.7237342162747999e-03 -4.0808677924509251e-01  -9.5451693446992007e-03 8.9534602739073807e-02 -3.7329317537686701e-01  1.6588273544875326e-01 2.6109379917091485e-01 -2.6994091550390276e-01  8.4753350522578735e-02 9.2371993273046044e-02 -3.3803576601763419e-01  -1.6760067096656103e-01 -2.1383109603366476e-01 -8.8988888034931060e-02  -1.7049843844206472e-01 -2.2353535053103732e-01 -5.0264892545810028e-02  -2.0351740168189095e-01 -1.6530368728819961e-01 -6.0170228013103302e-02  -2.0603522439245286e-01 -1.0591917206932625e-02 -8.8545529275474044e-02  -2.2126338472850288e-01 2.0745588097689782e-03 -5.5112991708278720e-02  -1.9198693062924937e-01 3.0494445561326373e-02 -9.2859645948875066e-02  -2.0721246367733845e-01 5.4254918372139360e-02 -6.3826514288169198e-02  7.7842291052444224e-02 2.3119748499736631e-01 -6.9684492388345190e-02  7.5007306251069598e-03 2.3701800882500851e-01 -7.1399327841862384e-02  6.7813137851870681e-02 2.5780960178891543e-01 -5.0960336455163034e-02  -2.5480515906641911e-03 -2.5470477659137530e-01 -1.2