<?xml version="1.0"?>
<VTKFile type="UnstructuredGrid"  version="0.1"  >
<UnstructuredGrid>
<Piece  NumberOfPoints="606" NumberOfCells="1809">
<Points>
<DataArray  type="Float64"  NumberOfComponents="3"  format="ascii">0.1197988432572323 -2.411298295662239 -1.966931293812808e-17  1.193841473626791 -3.258900934188621 1.750984660425761e-17  0.8613608250928001 -2.277210230015675 5.674734234303247e-18  1.531050013456736 -1.922223647394625 -4.313181364612041e-16  2.065143397640274 -1.376192778380685 -4.228205550452528e-16  2.409547384142753 -0.6870210567427595 -8.728093580717158e-16  2.537131307217727 0.06481176063565161 -8.908034884715273e-16  2.404390218817253 0.8117114261801416 -1.323114920751898e-15  2.006490310917284 1.454759942139513 -1.324196948861036e-15  1.40261742631234 1.924208323342879 -1.767478844306278e-15  0.6870332726054242 2.191758153537831 -1.76654456979573e-15  -0.08192904701354464 2.167308705982634 -1.770038511712536e-15  -0.8036248266679763 1.914624608540317 -1.776632966442825e-15  -1.408174071938243 1.452099120073121 -1.332904288744619e-15  -1.811292167945926 0.8119701867329716 -1.330604711995217e-15  -2.028255601354267 0.08710108404830068 -8.895944432807689e-16  -2.044975496653272 -0.6622016550440962 -8.827725242688185e-16  -1.765849823623753 -1.354808250712616 -4.410896579733664e-16  -1.279552715775188 -1.925090633474996 -4.298182411543343e-16  -0.6203652445055576 -2.281501318361007 -1.059744849400154e-19  1.908537506520722 -2.93082053350122 1.246760724266624e-17  2.516937219795975 -2.43291256486103 -1.749023827331821e-17  3.000657467686098 -1.818436809043881 -4.713885605361846e-16  3.357405130216092 -1.120912452723897 -4.337668497527693e-16  3.567679973209059 -0.3647962228249037 -8.844568944331383e-16  3.572906400289177 0.4238472077905827 -8.848091891811586e-16  3.355390487225369 1.18631512554613 -1.328659693155056e-15  2.946913979550096 1.861799004614277 -1.340408068817957e-15  2.390719760065874 2.420343213180393 -1.773588225022921e-15  1.731866769897501 2.847540333153194 -1.764558789112839e-15  1.006210708509258 3.145311634886166 -1.772702200452746e-15  0.2363831161325087 3.291786104109541 -1.779103818263771e-15  -0.5458470379331238 3.255161676341463 -1.814363215259948e-15  -1.298942950938217 3.033570271894677 -1.762106204775256e-15  -1.977732985046936 2.635632534188936 -1.782735526821742e-15  -2.539179469578986 2.085737663821654 -1.778831756504036e-15  -2.942501214154712 1.4137174300859 -1.335789570955274e-15  -3.171519343589543 0.6631575561765506 -1.321073964472143e-15  -3.214133089347215 -0.118259271492991 -8.854420214243802e-16  -3.087910784128449 -0.890177832477601 -4.284944234416314e-16  -2.790563464196381 -1.609388566302869 -4.441229756451588e-16  -2.346117881189016 -2.245182378576219 1.035087217760642e-17  -1.775119963123481 -2.769938523750729 1.115963780042092e-17  -1.101775091752591 -3.156149159854266 1.003907877557056e-17  -0.356421447233233 -3.376961707692414 6.16897504310274e-18  0.4248866908368237 -3.411504482151479 -2.051019581156324e-17  1.806900715439806 -0.418039421291441 -3.031914610270885  1.900557303144993 -0.7941149548422454 -2.369215381703863  1.542386472025331 -1.041505851049174 -3.125760660692672  -2.319516637818945 1.116445729171227 -2.512318424263047  -2.324522894487967 1.264749268893293 -3.196449065191881  -2.522312577536197 0.6204618631162321 -2.867798250576228  -2.095294050607077 -1.375071358353466 -1.455510050459507  -1.775320383121091 -1.750876266695384 -0.7759078322274583  -2.214734200830842 -0.9458823924705501 -0.7375705992248129  1.79505485356817 1.596030484332326 -0.8393527236512947  1.898105419602668 1.372502664594887 -1.412742455116615  1.264680721111026 1.819702422305004 -1.349006077021111  2.112796772045099 -0.1377202893562038 -2.302376433556206  1.10625173108863 -2.248512436147069 -0.8579866602758782  0.562861794389817 -2.427023853433082 -0.5924554112751828  0.5669199128825657 -2.469568079578429 -1.133820360022224  1.448883774610298 -2.021876950208565 -1.751795589819011  1.732212747728515 -1.805720160478491 -0.8830444216139374  0.8378969104584139 -2.391951663065657 -1.65004522260003  0.3465515032502106 2.034399741579384 -1.404323622492233  -0.4322109085131934 2.011060019723215 -1.27788340535025  0.1130036853545207 2.120381180581277 -0.7207133877185833  -2.090491144389893 1.561427631920343 -2.733404965384205  -1.378289107413413 -1.872618128841009 -3.538462388343987  -1.609279866704592 -1.805051794884894 -2.65074925263101  -1.938103402773792 -1.412964782161823 -3.240959394856171  -0.9439421061347208 -2.202853874220231 -2.935735873284052  2.16992908877539 -0.8058163943593409 -1.648990034075375  2.368565012578606 -0.8028679001774313 -0.7659924774140694  2.117569257480898 -1.303926029452552 -0.9814532706653997  -1.268774456648928 1.639280615680698 -0.5996408209537379  -0.5744214777302881 1.994437154683131 -0.5986559171252439  -1.002826905990834 1.835854749446843 -1.12324079311333  -1.353793438141269 -2.122873887019174 -1.379345421066501  -1.102732080392139 -2.243077619953454 -0.6649532618043412  -1.978894920485456 1.736464739862556 -3.220779186782509  -2.113616730296844 1.506074388112896 -3.923367972833399  -2.348877870089508 -0.8304791164035751 -1.70902167627887  -2.43043338493536 -0.4168192045067659 -1.319003312637753  1.808676227148363 1.070077154847509 -2.843035523719376  1.562456796505648 1.510622189907521 -2.044343416736292  2.009702523038655 0.985476021491404 -2.066325088056896  1.21428938958034 -1.683933484625812 -3.101591849121239  1.286347338168413 -1.273191801210286 -3.647810816010549  -2.391412142960056 0.1857777848399009 -1.275418794876463  -2.156873496054212 0.4081096411897929 -0.6542419564861236  -2.136990679723842 0.8282258606665039 -1.219514040784601  -2.27965732692449 -0.257245480997609 -0.6554508215835227  -1.852430402193068 1.038584977347361 -0.626225234283119  2.245810506992768 0.866708382108387 -1.409244258690549  2.275114388703624 1.075692847535636 -0.6750223140753886  2.523977886254834 0.4182012571730395 -0.8246088385735578  0.8215397244667234 2.0558232110074 -0.7642295270176622  1.381242438577704 1.907728477043517 -0.5220189639915703  1.553132543768269 -0.6667553135144455 -3.888411618392452  -2.51868027678425 0.05146878161511662 -3.147188232603368  -2.543444483486825 0.09032995364346119 -2.422225471594141  0.4315153349150301 -2.442940258192041 -2.312036982172569  1.066765280393659 -2.140479385024906 -2.441883151902124  0.5868970536630834 -2.191625874955211 -3.204491174794531  -2.405178479933197 0.6592450857672636 -1.965806714693891  -2.366145879714784 -0.1469838889855239 -3.94917831386602  -2.388863164960541 -0.4895284303704115 -3.32900408639988  -2.138890742259853 -0.8082704963792462 -3.938728982522942  2.295867433083045 0.4146240428754308 -1.76356266214687  2.078291677463255 0.4865510863652272 -2.534729962646942  2.407190901077482 -0.1785377047243849 -1.360515519226495  1.979310078998586 0.2829546148980398 -3.150970879265107  -1.115651657092472 -2.168986877895895 -2.073612594818386  -0.4074479349069919 -2.414765283021954 -2.251580155927388  -0.6227800687281905 -2.440991127323527 -1.355285025518161  0.159899155026629 -2.523482209108219 -1.601663784835099  0.009010049956554059 -2.521079932339053 -0.8769350682555054  -0.4635637103121546 -2.456432620973712 -0.5667336345056776  0.8854809455084731 1.916910488843637 -2.151772537029392  0.6200349390141268 -1.557733173797443 -5.126857559835787  0.07975013186905976 -1.546738591576284 -5.544446215902254  0.6096113475336485 -1.30007964168306 -5.917421419553299  -0.261295003536989 -2.336782040406683 -3.181488655906329  0.1901776038339087 -1.161098948255539 -6.38146978321608  -2.091807110224083 -1.299874382503772 -2.218760108731977  -1.707682743744732 -1.785035737282498 -1.779658359859033  0.1992161404662493 2.237390382709684 -2.903171563902522  0.5062065188277747 2.20676297972153 -3.579794557126489  -0.06385489766386779 2.354567615543706 -3.595638353836387  1.945116713296833 0.7574130773293 -3.779509190779709  1.517376013819094 1.503592461942651 -3.443779166573611  0.937101724898139 1.943271729111466 -3.131294775151131  -2.24926947349951 -0.9575725306492054 -3.038046657434015  -2.440748720791525 -0.5478831900224305 -2.522834470047216  -0.428489552384833 2.366574087686905 -3.150452793148091  -0.4683747750203872 2.239202966557831 -2.469544848915743  1.633274249248921 1.494357100805643 -4.073211516806142  1.069204614147704 1.97811139482534 -4.084632074894961  1.469998563611432 1.713953459556933 -4.757752814924712  1.112122162246004 -1.151074357183352 -5.557249888619284  0.9164337979964149 -0.9813796922386872 -6.420192325893195  1.866799318486268 -1.442389736214047 -1.741849040512526  -0.766125162192649 -2.141949162246601 -3.709412945852796  0.1436940140678842 2.117718966253998 -2.14042672557845  0.1179139697786528 2.329212941362564 -4.322780624399518  -0.7190997474887129 2.334734044553938 -3.825222552552245  1.839426148955286 -0.132781750108329 -3.592931060449055  1.921681432126891 0.1236485128479053 -4.079793846458539  -2.491140616143448 -0.1408064245053242 -1.879977952727429  -0.0613647754544491 -2.153218941580135 -3.952575211884845  1.367598310551036 1.612373734679469 -2.72238724472827  -1.629673166864354 1.473702432558677 -1.275468065917697  -1.670141186407627 1.927123948177955 -2.725430011241027  -1.022463400302834 2.256114692923418 -2.907686819185719  -1.525555850103857 2.089148410318169 -3.605944263194591  1.723252696804858 -0.4128862858061508 -4.742435305056773  1.520820091297559 -0.7670162698618456 -5.299659838305393  1.898904579917767 -0.1473424026421648 -5.727661263294231  -1.124090812304987 1.956014824949358 -1.957111454339397  -0.3209405394319197 2.090297863212591 -1.863874087753912  0.9834001682365816 -1.66328164789838 -3.754189641690933  0.07859993391836209 -2.427746611403446 -2.730062474814697  2.002536321004615 0.556385563287065 -4.502938464264801  -1.718327051317288 -1.417619071680543 -3.9634518666665  0.5802224900631084 -1.849343430406774 -4.214317653414674  0.052287525843
[...]
<PointData  Vectors="f_4658945-0"> 
<DataArray  type="Float64"  Name="f_4658945-0"  NumberOfComponents="3" format="ascii">-3.2006432634667001e-02 -4.7037957665214580e-01 0.0000000000000000e+00  9.4195611072904931e-02 -2.9699880166137793e-01 0.0000000000000000e+00  1.1423602569248091e-01 -4.6341654394788528e-01 0.0000000000000000e+00  2.4321715380635411e-01 -4.1680193460176895e-01 0.0000000000000000e+00  3.4435747347113271e-01 -3.3372737902938321e-01 0.0000000000000000e+00  4.0342391822219464e-01 -2.2137424074966577e-01 0.0000000000000000e+00  4.0985941737307341e-01 -8.6338709935580377e-02 0.0000000000000000e+00  3.8210117123851550e-01 5.0294127310493875e-02 0.0000000000000000e+00  3.2808211913211777e-01 1.8126695193366343e-01 0.0000000000000000e+00  2.5014990489742039e-01 2.9072670215261831e-01 0.0000000000000000e+00  1.3845695194935087e-01 3.6969826896053409e-01 0.0000000000000000e+00  1.2894336359834922e-02 4.0785443359226370e-01 0.0000000000000000e+00  -1.2250862716145895e-01 3.9299094491562542e-01 0.0000000000000000e+00  -2.4849662901453204e-01 3.2829686571552547e-01 0.0000000000000000e+00  -3.5329699055240654e-01 2.2079911915273898e-01 0.0000000000000000e+00  -4.1522703684341988e-01 8.4779391280056321e-02 0.0000000000000000e+00  -4.2513464918709759e-01 -7.1805733169376704e-02 0.0000000000000000e+00  -3.8891418570216979e-01 -2.2506650899070393e-01 0.0000000000000000e+00  -3.0054090330307676e-01 -3.4951231865940430e-01 0.0000000000000000e+00  -1.7649650248460369e-01 -4.3458789195918068e-01 0.0000000000000000e+00  1.5126100558758454e-01 -2.7610440773962464e-01 0.0000000000000000e+00  2.0533070717515955e-01 -2.4393522742057494e-01 0.0000000000000000e+00  2.4841493900881959e-01 -1.9304188052574811e-01 0.0000000000000000e+00  2.6930177999812877e-01 -1.2903909146335035e-01 0.0000000000000000e+00  2.6326086240869695e-01 -6.2258360504390216e-02 0.0000000000000000e+00  2.4424036257216714e-01 -9.9920756940956000e-03 0.0000000000000000e+00  2.2535030952015064e-01 3.2526658267667832e-02 0.0000000000000000e+00  2.0710237474389956e-01 8.4829677531538972e-02 0.0000000000000000e+00  1.8188298824088248e-01 1.3834325447656678e-01 0.0000000000000000e+00  1.4101565395698010e-01 1.8855127201267516e-01 0.0000000000000000e+00  8.5146450416839464e-02 2.2585708015209205e-01 0.0000000000000000e+00  1.9332148215664167e-02 2.4020293073612975e-01 0.0000000000000000e+00  -4.4286071729253668e-02 2.3646675085923233e-01 0.0000000000000000e+00  -9.8279062742441817e-02 2.1334428102221567e-01 0.0000000000000000e+00  -1.4329704919523167e-01 1.8330467956103028e-01 0.0000000000000000e+00  -1.8453955174475151e-01 1.4597318675432167e-01 0.0000000000000000e+00  -2.2045832243833333e-01 9.9094771140389643e-02 0.0000000000000000e+00  -2.4717153465533703e-01 4.6548382305959791e-02 0.0000000000000000e+00  -2.6353643641706587e-01 -1.5200280677388064e-02 0.0000000000000000e+00  -2.6817736932355435e-01 -8.0126698365965685e-02 0.0000000000000000e+00  -2.5511903281216286e-01 -1.5238122349372932e-01 0.0000000000000000e+00  -2.1894781746799413e-01 -2.1767072533912749e-01 0.0000000000000000e+00  -1.6361707858937846e-01 -2.6677132948732041e-01 0.0000000000000000e+00  -9.8525656649120316e-02 -2.9835056773619512e-01 0.0000000000000000e+00  -2.9282734694251022e-02 -3.0945133180821277e-01 0.0000000000000000e+00  3.2222199782502001e-02 -3.0728674400976097e-01 0.0000000000000000e+00  4.4628341717269637e-01 -1.5864830906100030e-01 -2.0385592512383835e-01  4.3973976143627175e-01 -2.0591403649829906e-01 -1.8820040700451551e-01  4.2048806429921431e-01 -2.5018172464614763e-01 -2.2393042258266208e-01  -3.4361995406434337e-01 1.5891927987375723e-01 -1.0435627409431204e-01  -3.3110781049075000e-01 1.5480136792206886e-01 -1.5747575057907812e-01  -3.8373046423067381e-01 6.0726081569937876e-02 -1.4420810651782207e-01  -3.5964290099705470e-01 -2.3549115015351635e-01 -7.2389631669166607e-02  -3.2552934581664406e-01 -2.9324772667985638e-01 -2.8336113755829655e-02  -4.0182269257385167e-01 -1.4666388791172427e-01 -1.6593031870835429e-02  2.8480076459506243e-01 2.3714037457151649e-01 -5.4531813828790722e-02  3.0344852022387109e-01 1.9850310572420540e-01 -8.9910105012798669e-02  2.1543578826249879e-01 3.1317020450245381e-01 -7.7954642801205981e-02  4.3178154330886581e-01 -9.2647165377915328e-02 -1.6686984368477803e-01  1.8480206828346579e-01 -4.2459209783084162e-01 -5.1664115681655257e-02  7.7526424216165929e-02 -4.5891832510900854e-01 -2.7451818180527939e-02  8.7342174114943688e-02 -4.3835507819219593e-01 -6.8405374087536247e-02  2.7257160509179224e-01 -3.5607438880609626e-01 -1.2831491267738931e-01  3.0173332031452499e-01 -3.6063625551698292e-01 -6.1087180432696168e-02  1.4867924892327339e-01 -4.0710431724008805e-01 -1.1143651239214415e-01  7.5150769427266784e-02 3.9645824212157404e-01 -6.1630628264823011e-02  -6.0305449345386987e-02 4.0450181809874852e-01 -4.1036560196443618e-02  2.8392506575375270e-02 4.0694106754927917e-01 -3.4570897336270154e-02  -2.9175475193146422e-01 2.2396170202266796e-01 -1.1404291257325447e-01  -2.0892455302483040e-01 -3.2445214229942343e-01 -2.2440993391880867e-01  -2.6941136656212450e-01 -3.2699844079776824e-01 -1.5913801493514496e-01  -3.1565975107365041e-01 -2.6633314686845649e-01 -2.0019580969218143e-01  -1.4080167740066635e-01 -3.7152071181743385e-01 -1.8327448685369918e-01  4.2382251650437741e-01 -2.0178345280747526e-01 -1.3452177614658778e-01  4.0559573699959378e-01 -2.1050302486330674e-01 -5.8466999110142075e-02  3.7494555121727058e-01 -2.8390169760931144e-01 -7.4557371233484743e-02  -2.2230307029073862e-01 3.4430242388309351e-01 -1.0951572992024403e-02  -9.3953658836573653e-02 4.0018697421196264e-01 -2.1239518496965638e-02  -1.6306902506353499e-01 3.7144748214095197e-01 -2.9323293483314399e-02  -2.4076707363552380e-01 -3.6820596243099379e-01 -7.7340869825486283e-02  -2.1969352566639005e-01 -3.9447107724575964e-01 -2.6634514953643593e-02  -2.7094837181837739e-01 2.3767036035198175e-01 -1.5068562501845481e-01  -3.0489466762043771e-01 1.8010050072341569e-01 -2.0792276632104320e-01  -3.9673223751956349e-01 -1.4705193112707851e-01 -8.2486940660786726e-02  -4.0883728268164404e-01 -5.9915278454393643e-02 -4.8299996778687709e-02  3.3614316915522596e-01 1.4081513632561662e-01 -1.4827408599690914e-01  2.7539022019871051e-01 2.4241872779371004e-01 -1.1216681995862433e-01  3.4361339883595832e-01 1.2644319388594277e-01 -1.2808179781885526e-01  3.2307833712038492e-01 -3.1638664551405560e-01 -2.2734186695278250e-01  3.6958536952270371e-01 -2.7909334818905024e-01 -2.4377406174674965e-01  -4.0336760122868193e-01 5.0244110095739404e-02 -3.8692933538711026e-02  -3.9970060690833648e-01 1.1364856116104162e-01 -3.3016346262231006e-03  -3.6281581844853267e-01 1.7244151887156847e-01 -2.6970959479000609e-02  -4.1860709140603652e-01 -1.4531619323834621e-02 -7.7253421896417056e-03  -3.3641307263327580e-01 2.3392287189953001e-01 -3.2967116884139941e-03  3.5579167077343354e-01 9.5525619390489716e-02 -9.5825344923204755e-02  3.4800314889243383e-01 1.2317790717179904e-01 -4.4898402998243769e-02  3.8747012871827913e-01 2.1121049990279086e-03 -5.7678946235583797e-02  1.4457692620996698e-01 3.7003063732006730e-01 -4.4989965303469749e-02  2.2771793304531276e-01 3.0648492222837048e-01 -3.3845505096560230e-02  4.1847597050836621e-01 -2.0943316483944308e-01 -2.2835212056937168e-01  -4.0634557256987330e-01 -4.0277947327698758e-02 -1.7759576020601811e-01  -4.0367879342461144e-01 -1.1343369743213942e-02 -1.1961109986642532e-01  9.2886870299660793e-02 -3.9496773855347017e-01 -1.5635987396020881e-01  2.3035689991802463e-01 -3.5902681449619078e-01 -1.7795094260443139e-01  1.6458698339645286e-01 -3.5274818763942406e-01 -2.2003798684411185e-01  -3.7754235683721321e-01 1.0762219050308150e-01 -7.5327825919632746e-02  -3.9199523164654287e-01 -8.8795965547665071e-02 -2.4352994094204664e-01  -3.9688830546931836e-01 -1.3030129410367036e-01 -1.9974051727575692e-01  -3.5799937914944757e-01 -1.8995546630094223e-01 -2.5142860407686973e-01  3.9121632229342429e-01 1.3742294786358097e-02 -1.2430162785639967e-01  3.8936036695587550e-01 2.6618196784090945e-02 -1.5598352928382334e-01  4.1683461270929489e-01 -9.6228804414489305e-02 -1.0472507998431153e-01  4.0646970459705728e-01 -2.1562234397843487e-02 -1.7647570022962855e-01  -1.9504235697224331e-01 -3.8566465780032999e-01 -1.2604019869764838e-01  -6.4837509325060050e-02 -4.1084925738446487e-01 -1.4228436963391480e-01  -1.1932778143443526e-01 -4.2509076897988163e-01 -7.9635015054441288e-02  2.1632194698099974e-02 -4.2977145744246720e-01 -1.0208830450380857e-01  -1.8770175988996596e-02 -4.5224712035324788e-01 -4.6674930993280184e-02  -1.1087536010451246e-01 -4.4396968018425059e-01 -2.3307584548824326e-02  1.7582831836127669e-01 3.4218476885569776e-01 -9.5996496955032470e-02  1.6331680683517252e-01 -2.8081285720800586e-01 -3.0889045771022078e-01  5.1074761649672500e-02 -2.7906965244490228e-01 -3.3464922918233037e-01  1.2635615008623918e-01 -2.4295148552261539e-01 -3.4679431139826339e-01  -7.3149098213520676e-03 -3.7339917202548534e-01 -2.0525487803330611e-01  4.3519154945510452e-02 -2.2606086741590101e-01 -3.7307038710538210e-01  -3.5705774562635462e-01 -2.4321786582798491e-01 -1.2601104472032620e-01  -2.9934795177713208e-01 -3.2036899507057121e-01 -1.0252761364256854e-01  7.5488295733684707e-02 3.8501741555806313e-01 -1.1387384935852177e-01  1.1853647446207427e-01 3.6893522239637322e-01 -1.5250455467521348e-01  2.5700493324590470e-02 3.8691795049236888e-01 -1.5573509327187349e-01  3.5612269507634170e-01 6.4913735782850715e-02 -1.7854888270224348e-01  2.8380818719580464e-01 2.2311399416689959e-01 -1.5324751259045258e-01  1.9640891241638697e-01 3.2682175056467833e-01 -1.3276088539005346e-01  -3.7396951912366655e-01 -1.9783093144573141e-01 -1.8154528203275125e-01  -4.0336868289101518e-01 -1.2274870908269260e-01 -1.3768313712249344e-01  -2.7375547850724838e-02 3.8324344041210978e-01 -1.2850051824280356e-01  -3.6028444986868538e-02 3.8980341904010801e-01 -8.5468498261658310e-02  2.7716120709879710e-01 2.0955650380117316e-01 -1.7912509303104157e-01  1.9187751553562107e-01 3.1575288147760067e-01 -1.7800349985753885e-01  2.2966673678986449e-01 2.5662695503072136e-01 -2.1325218237418697e-01  2.2437928035262156e-01 -2.2972408941430195e-01 -3.1841221088059207e-01  1.4896732518162634e-01 -1.8690554194175243e-01 -3.6245838454652696e-01  3.7537789534625698e-01 -2.9067116624883427e-01 -1.4015565427179816e-01  -9.0144114630822475e-02 -3.4618336552724532e-01 -2.3788642525029449e-01  5.7378137608355209e-02 3.9413233648668472e-01 -7.8395408279693699e-02  3.5248858097879823e-02 3.8164039105838699e-01 -1.9757949906945529e-01  -8.5594173243140129e-02 3.7060621049647047e-01 -1.7641913281769903e-01  4.2695155666256412e-01 -1.1293242742366971e-01 -2.0201574792307952e-01  3.9663899831454713e-01 -6.2351919238898212e-02 -2.0365989702546491e-01  -4.0819293124930278e-01 -3.0070114510094316e-02 -8.3773222553941054e-02  4.8714377511735733e-02 -3.4080358414717182e-01 -2.5504725433844977e-01  2.6254983912500041e-01 2.6071198560531761e-01 -1.2824896308543274e-01  -2.6918825876712560e-01 2.9380090170658990e-01 -2.7956129031273112e-02  -2.2424394393414099e-01 2.9503724716415308e-01 -1.0637533446217655e-01  -1.2191628503280341e-01 3.5911443549025474e-01 -1.1330380471121491e-01  -2.0209460872547086e-01 2.9980158327156381e-01 -1.7098296584468445e-01  3.7209306732032266e-01 -1.5215460808063255e-01 -2.4311250653096406e-01  3.0585030027669313e-01 -1.8757837020584123e-01 -2.8635359295510976e-01  3.0168927326718353e-01 -7.0693265867383656e-02 -2.9109324424238742e-01  -1.5741446968773415e-01 3.5940513403178365e-01 -5.6520598564352396e-02  -2.6697775373659992e-02 4.0177438520318343e-01 -5.9902130457496774e-02  2.8387380077238977e-01 -3.1330787199526255e-01 -2.5229819640080753e-01  4.1314158550796017e-02 -3.8770661097900544e-01 -1.8045319673524013e-01  3.5314380091815467e-01 2.9461058116231485e-02 -2.1058912356146073e-01  -2.7598144715937312e-01 -2.7272210570765221e-01 -2.5591234455803696e-01  1.8190123489494156e-01 -3.1865794899493938e-01 -2.7164949164907209e-01  6.5661848076778592e-02 -3.1174009336243064e-01 -2.9642869917596371e-01  -3.9735546356118256e-02 -3.2815013131769732e-01 -2.7791246168774825e-01  -1.6006657030312510e-01 -3.0710617532259926e-01 -2.8928789811827033e-01  4.1004586456303321e-01 -1.1143992249742127e-01 -3.9800977013109598e-02  3.0472167859442212e-01 -2.7038277051416870e-01 -2.6931341151613436e-01  2.4021975256203754e-01 -1.3769937168019256e-01 -3.3469172659224317e-01  -5.2042379808712798e-02 -3.0182601173912382e-01 -3.2055517413896828e-01  -3.7933241637063081e-01 4.4309158990130701e-02 -2.1324344854133662e-01  3.5573657040691714e-01 -3.0591236116257042e-01 -1.9598553319195311e-01  3.0460819294757219e-01 1.4250636346024834e-01 -2.0027161054685694e-01  1.1322662829452471e-01 3.4899765643133751e-01 -2.2457997489199574e-01  1.4120365475470897e-01 3.0313148536812412e-01 -2.6613262570907553e-01  2.4482922151274056e-02 3.3309562024773881e-01 -2.8751263169316249e-01  -2.0701974679607157e-01 1.5517572370910479e-01 -3.5801061524486305e-01  -1.3171519156982145e-01 2.0633595334123075e-01 -3.6090187079351899e-01  -1.8248104614055730e-01 9.2279118211492650e-02 -3.8630323339745148e-01  -4.9542600209131461e-02 -2.6123455791560785e-01 -3.5800821855746690e-01  -1.6177125459379710e-01 -2.6314824781184215e-01 -3.4102044837181833e-01  -1.0762813100926606e-01 3.4897076691723172e-01 -2.3294531050174810e-01  -3.2185085054760053e-02 3.5626409775460088e-01 -2.5753295396492920e-01  2.8741328510816688e-01 1.3952557405953625e-01 -2.3307118331385121e-01  3.2647521091712389e-01 5.0333613959242397e-03 -2.4912607906553344e-01  4.2301028227110647e-02 -5.6329421495744735e-02 -3.9854722456114416e-01  -5.4360919751786037e-02 7.5167395571487730e-03 -3.8884814314848254e-01  5.9883282896467591e-02 7.3063689041401633e-02 -3.6473916296022124e-01  -2.4540885698259424e-01 2.5374947747722632e-01 -2.2609860408732774e-01  -2.1235167572058233e-01 2.6247801631492718e-01 -2.5900946013529369e-01  -2.9281201493917719e-01 1.6974178836422921e-01 -2.6226486375912966e-01  -2.7701148403015957e-01 -2.3496913940365557e-01 -3.0694739884373051e-01  -1.7495852830286826e-01 3.1732047079358860e-01 -2.1651313676252429e-01  -2.5564927121070757e-01 1.6142158390627728e-01 -3.1145104940349405e-01  -1.6783967944827599e-01 -9.4730147798719730e-02 -3.9821064205303663e-01  -2.0448119511092250e-01 -1.8120237677763790e-01 -3.7298715134281218e-01  -2.5940804280298502e-01 -5.8402377012114641e-02 -3.7450719407711053e-01  -2.8098586121658892e-01 2.5708769086331007e-01 -6.5898638103370044e-02  -1.2633619468276650e-01 9.9160878837515121e-02 -3.8533089617355382e-01  -3.5295321307090155e-01 6.9760457284572794e-02 -2.6099823532337696e-01  -6.2527594882546778e-02 9.0306862840965937e-02 -3.7157292300403405e-01  3.0201327799231244e-03 1.3162020627172871e-01 -3.6731354148328510e-01  -3.1050967746883801e-01 -1.0913217204184883e-01 -3.4510589964223670e-01  -2.2093771820324209e-01 2.0230527759198803e-02 -3.8613768557974609e-01  2.2078281335314154e-01 2.2501085634339071e-01 -2.5863118287052406e-01  -5.0884848985696354e-02 1.9375786848921653e-01 -3.6328022086254169e-01  -2.4497496748441011e-02 2.7435240667316280e-01 -3.3769707493690904e-01  -3.5146045087084549e-01 -1.4753338468871746e-01 -2.9951823076692319e-01  -3.3374636755376225e-01 2.0660942277468164e-01 -4.7777280344159699e-02  -3.2247630429478147e-01 7.5758077968636067e-02 -3.0067297175376501e-01  -2.6404459753608805e-01 -2.0211446759500795e-01 -3.4082647379378950e-01  -1.1130528080996971e-01 2.7802132967837684e-01 -3.2356105220462145e-01  1.7125884700224622e-01 5.6475184377874896e-02 -3.5554506644529288e-01  2.3030288865924481e-01 -3.2684795118163239e-02 -3.4099551949533680e-01  1.5975197592027854e-01 -8.3293710982801403e-02 -3.7480738590473739e-01  2.5339216743384446e-01 5.1355991765441679e-02 -3.0912229861198381e-01  -6.9224035979071716e-02 -9.3877420241250925e-02 -4.0563429867751538e-01  -1.5455915989555544e-01 -8.3011463929493733e-03 -4.0484421110572388e-01  1.0948728693097647e-01 6.4527700856602723e-03 -3.7756725067002722e-01  1.8003582890901332e-01 1.5610730092586531e-01 -3.2634534600279519e-01  2.5238964505212619e-01 1.4169729778570023e-01 -2.7821041241205408e-01  -2.6343541679220361e-01 7.2583645283928827e-02 -3.5178898232623257e-01  -3.0948792876234549e-01 1.4252980832532861e-02 -3.3590640656279336e-01  1.5903696107171153e-01 2.3874450370854294e-01 -3.0195003472044701e-01  7.0799324996939444e-02 2.9237685713233458e-01 -3.1046172154056267e-01  -1.5897240200342161e-01 2.8583707668366615e-01 -2.8486811415340213e-01  -3.5458626503789326e-01 -2.6588192756175945e-02 -3.0624325787532908e-01  6.1623139511846399e-02 2.2108953577469123e-01 -3.4618453015963940e-01  -8.0027020432149751e-02 -1.8901344173999013e-01 -3.8964252964009261e-01  -1.2345159820234668e-01 -2.3047025387106168e-01 -3.6934105848910298e-01  -3.8055789142355650e-01 -3.6718565820606390e-02 -2.7173882956086726e-01  8.8182735153105762e-02 -1.4769622644792513e-01 -3.8946457201234913e-01  1.0320760828417250e-01 1.4430778315611947e-01 -3.5678841027753427e-01  -1.8833630407759233e-01 2.2112688685553972e-01 -3.2767216205811106e-01  4.3224754595384768e-03 -1.5300959831169753e-01 -3.9850231752136922e-01  -8.4009728057226229e-02 -5.3858804657068429e-03 -3.4209462750073383e-01  -1.1244664114859164e-01 1.5612879119790320e-02 -3.3200468323024512e-01  -8.4346533544371799e-02 2.3754408629956744e-02 -3.3548703364626503e-01  2.3152139241675848e-01 1.0516996026868079e-03 -2.8053001092240893e-02  -1.1437830204800908e-01 6.0121945141215050e-02 -3.2035538399032165e-01  -4.8098558634826358e-02 -1.4265001257362053e-01 -3.0310249611787249e-01  -1.3431914696701601e-02 -1.4531025151870472e-01 -2.9721951004505559e-01  -4.6583350212291298e-02 -1.6524273425887515e-01 -2.7524642057032145e-01  -9.1563569593062152e-03 -1.1890850939963517e-01 -3.1967760679122964e-01  1.6162892714112062e-01 1.4617426594679889e-01 -4.8686499206994562e-02  1.8802565171727745e-01 9.3032763081738523e-02 -5.8462039032075454e-02  1.6243189196594585e-01 1.1927185310838981e-01 -8.8605692089892038e-02  -5.1922375300438167e-02 -1.9244957070910654e-01 -2.2993481107685482e-01  -1.9083694239879182e-03 -1.8304750561436767e-01 -2.3948707715596296e-01  -3.0764544408004857e-02 -2.0024297370529298e-01 -2.1316773418568194e-01  1.6419477546825716e-03 -1.9994972063635794e-01 -2.1817910337451465e-01  -2.1196869631522200e-01 8.2897788684017926e-02 -1.3352294336702486e-01  -2.0221662485249037e-01 9.0048547653951386e-02 -1.0274119574244588e-01  -1.8377063661953344e-01 1.1841759200560466e-01 -1.1501971050133954e-01  -2.2389647849033839e-01 6.0849967471896228e-02 -1.1519624073837684e-01  -7.9339822250212508e-02 -4.4352856004771658e-02 -3.4458959745957002e-01  -4.7565162006413877e-02 -1.6266660754713690e-02 -3.4309165931907171e-01  -2.0711419313146567e-01 -1.7162923355297188e-01 -1.0159546002529703e-01  -2.3261775884209968e-01 -1.2275940677246015e-01 -9.5323164561350884e-02  -2.0924668380301123e-01 -1.6315351243367443e-01 -1.3262181183566468e-01  -3.9715729452030529e-02 2.0946138765702729e-01 -7.1695689720716479e-02  -7.1587717412100613e-02 2.0887461258988727e-01 -5.1389041170862154e-02  -2.6747061915342669e-02 2.2411725075190508e-01 -4.6786049459965999e-02  -1.3261696127803155e-01 -1.8873067154367453e-02 -3.3340963219213815e-01  1.1454179479078032e-01 1.6063259291424065e-01 -2.2211208426806983e-01  8.6858210133858541e-02 1.8802091485122682e-01 -2.3062061314514840e-01  9.1981688771376982e-02 1.9088130894115729e-01 -1.8759116103154871e-01  -2.1799418941156867e-01 6.2570398334273469e-02 -9.1577030710691301e-02  1.2272978560865740e-01 1.3409896498377658e-01 -2.4910403345398524e-01  1.2808600060421807e-01 1.0958302710173738e-01 -2.6964535476859874e-01  1.0597319959040956e-01 1.3519443542565635e-01 -2.7575637122805668e-01  -2.2594985990584845e-01 -1.4359458686565035e-01 -8.1154072211601827e-02  -2.0493838810712647e-01 -1.9100193050085970e-