<?xml version="1.0"?>
<VTKFile type="UnstructuredGrid"  version="0.1"  >
<UnstructuredGrid>
<Piece  NumberOfPoints="611" NumberOfCells="1825">
<Points>
<DataArray  type="Float64"  NumberOfComponents="3"  format="ascii">0.2537709745646181 2.368207526240455 -1.320362728808047e-15  0.1828175567583715 -2.610400120287589 1.220455909436561e-17  -0.4427789585233087 2.370864672111447 -1.317522073538572e-15  -1.045390704141596 2.026482886241508 -8.543406903510392e-16  -1.479733177612719 1.479956546343066 -8.792431121565499e-16  -1.665523152955324 0.8046683888032782 -8.810744636724711e-16  -1.6637919796674 0.1071613129659808 -4.372658308339447e-16  -1.438958741845208 -0.5420008724164489 -4.549867059031711e-16  -0.9755288768841859 -1.042057874753526 -9.440210983468724e-18  -0.3638836855984279 -1.339137602998302 2.95514693835515e-18  0.3143197284948436 -1.389154286793672 1.234419127874457e-19  0.973192858528886 -1.195512615822603 -7.324212876318136e-18  1.518084542296938 -0.7773218572631233 -2.787264996650094e-18  1.882349973923697 -0.1946602181990018 -4.413634008206111e-16  2.008720107617485 0.479762616653808 -4.375792435957583e-16  1.858619722467989 1.150280988756514 -8.815092462260314e-16  1.475732973461194 1.721547417461183 -8.705723323083021e-16  0.9252764639096908 2.156499279692517 -1.329670908836517e-15  0.9319229745383526 -2.520804968831163 7.418486844231316e-18  1.629364902301584 -2.224645449685434 1.416552499258228e-17  2.232222216787035 -1.762811349975248 -1.100292869390478e-17  2.708225230167241 -1.169833328978113 2.98556349824043e-18  3.028157236208592 -0.482030077896722 -4.380802208117703e-16  3.173727952386082 0.2682674815103804 -4.537869256482337e-16  3.104044869418437 1.036071117456222 -8.893144979331724e-16  2.774825118846611 1.735525153275669 -8.759544922968886e-16  2.230723208817308 2.281689234589674 -1.314822162659438e-15  1.573524757744079 2.663154143642473 -1.348665721065313e-15  0.865616107435848 2.904097041972751 -1.313467673017455e-15  0.1327856485626288 3.054304826521347 -1.286845004111283e-15  -0.6231124696126877 3.049496977901484 -1.292655180496272e-15  -1.333294904663291 2.782988548834988 -1.246478471586744e-15  -1.927716843625014 2.314952853577006 -1.30896491961655e-15  -2.369090492698267 1.697842086009379 -8.782334075944207e-16  -2.640492131223242 0.9908965193794642 -8.628006747736297e-16  -2.748708425075902 0.2403008243678435 -4.428381340638474e-16  -2.634144361262348 -0.5103639684153992 -4.741984435781071e-16  -2.331439054858846 -1.203002508136562 2.055818784788401e-17  -1.867044538016337 -1.795596403519222 1.766243023583785e-17  -1.266064328882739 -2.24890558796252 1.067226929816518e-17  -0.5661859357516738 -2.527506152306164 2.133712610533695e-17  -1.899322922333857 0.2230150746943538 -0.588294903341505  -1.844412315981931 -0.3643868247785928 -0.6288342151181376  -1.117954542786633 1.968719152625334 -0.8360937224130348  -0.6605889477276574 2.264969555350367 -0.6664741468568648  -1.735939334700257 1.128408361458318 -0.6367538755891693  2.185622822175072 0.8119499655798162 -1.542167594206256  2.015743442221434 1.280183181168913 -1.074048674354351  2.164831962425469 0.7373686235631199 -0.649462522451373  2.28389760180744 0.2652242701040465 -1.29761872067791  2.231545011226021 0.2592814089883271 -1.934889613813201  -1.353993675947332 1.625743774553825 -1.484087765379834  -1.478223587697105 1.602819860921309 -0.7340799254482133  -0.8499064424966762 1.998428561010762 -1.406588767212936  2.156464070678572 -0.495969023714607 -1.582410280803217  1.784768812237128 1.40241504307831 -1.831304773732344  1.154610408079449 1.806327030063262 -1.989871691037607  1.561215241451539 1.802742163534866 -1.057813191253621  1.861670815834556 1.420371635763563 -0.5312382702323943  -1.773420244418667 -1.261717992662003 -2.928613767553337  -1.845776768946469 -1.19899280493901 -2.385227968425992  -2.049667490948069 -0.8028851796504464 -2.8164881055258  2.124403857747119 0.2072313654879157 -2.583706566758453  2.136173020785998 -0.3232662366605339 -2.295577382846881  0.8041400711985701 2.115027940398655 -1.430905849019841  -1.168845830608402 -1.744009374670704 -1.517527684824132  -0.6528680901271569 -1.702535993127155 -0.7361212940407948  -1.217045220535383 -1.426276886159545 -0.8044640058910837  0.1270979191272801 -1.911012744752358 -1.030839899412728  -0.3547121974287928 -2.027631495822488 -1.549567161162088  2.167286027093628 0.0006272353739490144 -0.6947662388891261  -1.547405437654695 -0.9437488663787705 -0.6084297362544292  1.383286777281414 -1.230974675847771 -0.640832741634528  1.769676838995321 -1.196175850657958 -1.362515929747923  1.904612341914337 -0.6851062164835898 -0.7352726018079806  -1.936481054593172 0.5993065706450462 -0.955203368917893  -2.091100126256007 -0.1458429324100363 -1.339400077166058  -2.001542105854651 -0.8918673406128943 -1.902793862710606  -0.08726830532509515 2.410164967282296 -0.5440706470914637  -0.3072256018496395 2.228793948696741 -1.281766297926346  0.656405762085277 -1.631847664346233 -0.6506564035369017  -0.0003871551238825571 -1.622606387165045 -0.4178516366009968  -1.776555913810923 -0.6759963553763667 -4.366011704901664  -2.086505008578578 -0.4328526626156166 -3.648985922802402  -1.981759912440812 -0.09818710337108433 -4.45063871626306  1.148317468404148 2.102530342755351 -0.6632675514267162  0.7897451441100628 -1.928428754806119 -1.427912147998901  0.1804060824450808 2.070776300232174 -1.862678875850017  -0.2856478556963502 1.922014603872505 -2.571513912883995  -0.5040547068457439 1.983742909219649 -1.919200965307352  -1.399881948870314 0.879487075748806 -5.562018675902489  -1.688958379266248 1.048959515098309 -4.66295625848981  -1.149004265023764 1.391109224090601 -5.113815511217606  0.5750883263192327 2.335888051977015 -0.7029590105294671  -1.663753728451397 -1.252836205804853 -1.328486964536945  2.297540610432441 0.3460532387343786 -5.195486254217689  2.343496115284315 -0.09308621006463479 -5.455343873151786  2.364300097335495 0.3298863431908048 -5.914798476030772  0.8189185285998046 -1.825964687084667 -5.438733586584633  1.420630665538375 -1.668914903239973 -4.978688542615008  0.9424512036851131 -1.977777335395047 -4.558534712322763  1.370771021354632 -1.787757030234084 -4.11895242031459  2.236955309945444 -0.003751240543271127 -4.761904220346158  1.87714191156185 0.8814997532004749 -6.810052186860069  1.734976158565083 1.199460438820919 -6.097582733128007  2.169152634826953 0.7278212883907261 -6.27905053382284  1.380856351883107 1.450914726081936 -2.664413542603315  1.954019295184287 0.9207763960514277 -2.373403518577008  -2.036504896679396 0.5049826885159909 -4.41016083765259  -2.011624803617679 0.9004594677949501 -3.971976680240625  0.5954116606485128 1.833773824690948 -2.547339469878645  -1.761416668379589 0.3246819002861705 -5.099132077337984  -1.039156488537198 1.76055048218358 -2.229622867962017  -1.554006447063588 1.392484481430072 -2.108174261910917  -1.804676628291856 1.060298826086209 -1.400869900469964  1.283756247636632 -1.609368445680052 -1.227309139581254  -0.7675944473366769 0.293896866325245 -6.720355334900925  -1.043440134715921 -0.2627384179757991 -6.30261317862001  -1.178761936742128 0.3839964976883516 -6.209161831873273  2.112921070232584 0.8358688897209265 -5.542587643085467  -2.087596013599959 0.4242143679416095 -1.766130961963479  -0.840983997820226 1.805938024612552 -3.878601106063634  -0.286850543677079 1.859828329534394 -4.094291999861679  -0.7192643507223334 1.725730794385155 -4.60358397952773  -2.197944944213711 -0.1841757241080284 -2.143361697148254  -2.261560171860977 -0.06509388460428259 -2.913978233868479  1.911876993151836 -1.126103224018143 -2.218379601612336  0.9693705335589969 -2.065583268526904 -2.252259522431058  1.499253460327227 -1.639619865341265 -1.844545670749776  -0.2709369912686183 1.887168164103688 -3.426503896991931  1.999214697256511 -0.7363608954162458 -2.890871058094015  0.5091886667880047 -2.249707819018901 -2.875281070144058  -0.1712494745082473 -2.203673363004218 -2.507918240009434  0.01101332082469079 -2.271987641487253 -3.396531974451641  -0.4313899511875644 1.678586261758526 -5.374633976070809  -1.461499811861054 0.08945662121146331 -5.705985511053929  1.729790471025104 1.004478834010203 -3.355510122049497  1.247422819370983 1.449105113170452 -3.735018871292244  -1.934936168590857 0.8856200695082291 -2.079486143334793  -0.8922468497959786 1.812309436350332 -3.058412033113737  -0.1012738763960218 -1.10120955321043 -6.650585643763955  -0.3048785729413168 -1.440457483515473 -5.897513967630353  -0.6985738345066379 -0.881736961827158 -6.280419630038367  -1.428412092016281 1.560322066593204 -2.866908951307641  2.057504124470033 -0.209716296733255 -3.158401367859715  0.3346838955330985 -2.132407440470548 -1.908673935163035  1.13129821953781 -2.020680248568744 -3.241237498603028  1.529546554611641 -1.690447464211943 -2.708915048432845  -1.351471737859916 1.618604927224609 -3.68809024557853  1.814389008364069 -1.217822822884341 -3.161355198801933  2.025208558318854 0.3927096033729358 -3.382776668958833  2.092149361341427 -0.1172750979959164 -4.00292730552763  2.111863711608954 0.4548836075119493 -4.192660936186573  0.2099851250415422 2.274757664726159 -1.233862905698438  -0.8441987089073435 -1.983137397488491 -2.288421536329341  -1.922229710800722 -0.7703985918389831 -1.190623410306009  -1.824614443526098 1.178527201160507 -2.648545933314085  -2.201031276730935 0.2765108867089754 -3.711798393352099  -1.68520276645605 -1.361291372372637 -1.908032526421503  -1.454968325846869 -1.626156346736521 -2.474085662269369  1.972717426865918 -0.7511195426153842 -3.745954348912799  0.6719329115286367 -2.179546447399813 -3.903460941651388  -2.168161944804521 0.4593643256043037 -2.432696322446574  -0.9217258788271039 -1.133748978818433 -5.538134331958244  0.124580201322305 -2.187782820472377 -4.042960158601925  -0.4204321162963298 -2.036870466592506 -4.12686121416333  0.297209288901539 -2.058336079921376 -4.670989146055938  -1.4938702
[...]
<PointData  Vectors="f_326327-0"> 
<DataArray  type="Float64"  Name="f_326327-0"  NumberOfComponents="3" format="ascii">5.7520390000620120e-02 3.5794124886332390e-01 0.0000000000000000e+00  -2.0819641476351416e-02 -2.3842498246182747e-01 0.0000000000000000e+00  -5.7133614294036267e-02 3.4194518113154182e-01 0.0000000000000000e+00  -1.7107023947749905e-01 3.0308558074033393e-01 0.0000000000000000e+00  -2.6567338015122643e-01 2.3076675151210826e-01 0.0000000000000000e+00  -3.3450012305565407e-01 1.3020235232164162e-01 0.0000000000000000e+00  -3.5345880708575955e-01 1.1096369053007822e-02 0.0000000000000000e+00  -3.3083306522809269e-01 -1.1792118044766235e-01 0.0000000000000000e+00  -2.6402648750836388e-01 -2.3912606718408255e-01 0.0000000000000000e+00  -1.5764455522291182e-01 -3.2490978887311822e-01 0.0000000000000000e+00  -2.8281254238773368e-02 -3.6235263200377404e-01 0.0000000000000000e+00  9.9846471523475394e-02 -3.3924537040728697e-01 0.0000000000000000e+00  2.0536755638189080e-01 -2.6682626608334814e-01 0.0000000000000000e+00  2.7216302134272252e-01 -1.5698405375255720e-01 0.0000000000000000e+00  2.9648228350018907e-01 -2.6563663379580684e-02 0.0000000000000000e+00  2.8276440740498943e-01 1.0804097926176037e-01 0.0000000000000000e+00  2.3651795406027640e-01 2.3194361319618434e-01 0.0000000000000000e+00  1.5968874523918736e-01 3.1814088857271311e-01 0.0000000000000000e+00  3.9980269219382511e-02 -2.2328987819367918e-01 0.0000000000000000e+00  9.2259997735333402e-02 -1.9468459045190759e-01 0.0000000000000000e+00  1.3077710477004459e-01 -1.5484929575816173e-01 0.0000000000000000e+00  1.5615125564400509e-01 -1.0599653897236623e-01 0.0000000000000000e+00  1.6564634216959309e-01 -4.8742375997418333e-02 0.0000000000000000e+00  1.6141400318677065e-01 1.9587783401305348e-03 0.0000000000000000e+00  1.5322888794100006e-01 4.1651412018658115e-02 0.0000000000000000e+00  1.5058516074278824e-01 8.4058072318491064e-02 0.0000000000000000e+00  1.4775757451408197e-01 1.4110351492763459e-01 0.0000000000000000e+00  1.2075075968500046e-01 2.0681483074159196e-01 0.0000000000000000e+00  6.0970571189054398e-02 2.5676279624181408e-01 0.0000000000000000e+00  -1.4299700634251599e-02 2.6141874476008753e-01 0.0000000000000000e+00  -7.6794622355063943e-02 2.3108730795905569e-01 0.0000000000000000e+00  -1.2610145650178012e-01 1.9646803213559189e-01 0.0000000000000000e+00  -1.6804427026499352e-01 1.5697641741094401e-01 0.0000000000000000e+00  -2.0033366613665315e-01 1.1276430913934363e-01 0.0000000000000000e+00  -2.2465109707105332e-01 6.1812136220372536e-02 0.0000000000000000e+00  -2.2837219111765236e-01 4.0875286709254610e-03 0.0000000000000000e+00  -2.2488829793248602e-01 -5.0890146459911453e-02 0.0000000000000000e+00  -2.0850300106200589e-01 -1.0761272387717019e-01 0.0000000000000000e+00  -1.7666664281548455e-01 -1.5885243956141012e-01 0.0000000000000000e+00  -1.3309666799784600e-01 -1.9997439401665731e-01 0.0000000000000000e+00  -7.9694493809201544e-02 -2.2851210117079659e-01 0.0000000000000000e+00  -3.4486398618542025e-01 2.2960568161146146e-02 -9.6240106608173881e-04  -3.3639741137340157e-01 -7.3436473645260847e-02 6.4350415261288105e-03  -1.8389713639156793e-01 2.8127529654683264e-01 -4.2216426893628374e-02  -1.1030769795643845e-01 3.2300539614266943e-01 -3.6534649161284356e-02  -3.0063492826126903e-01 1.6193183058498919e-01 -1.5589271904543222e-02  2.7660486516669641e-01 9.0981901693480485e-02 -6.4574636713287087e-02  2.5257249343349691e-01 1.5099462571182176e-01 -4.2154511697830500e-02  2.8653747858406359e-01 5.0505249398482041e-02 -1.2327962975257942e-02  2.9314285032958853e-01 -6.2759488355860725e-03 -4.2035062943278287e-02  2.9810892036648173e-01 1.8062236008972211e-02 -7.8143724111833859e-02  -2.1335166869897187e-01 2.4978805747171481e-01 -6.7305452792083165e-02  -2.4616178684092205e-01 2.3100747237422978e-01 -2.8064982882816284e-02  -1.3913013780647379e-01 3.0836771267640101e-01 -7.5839996479544425e-02  2.8985604675924237e-01 -1.1365541589051270e-01 -4.8661692229164749e-02  2.2804130220347069e-01 2.0780997244176802e-01 -9.1778338783816749e-02  1.5408610417490778e-01 3.0376393174535743e-01 -1.0952940440487438e-01  2.0062883411042390e-01 2.4948228800573979e-01 -5.1516176513960885e-02  2.5355833326043664e-01 1.7227334590291549e-01 -1.1897086415419336e-02  -2.7331255580286851e-01 -2.0885386719640359e-01 -1.4468919779966408e-01  -2.7851942118003326e-01 -1.8988947825099695e-01 -1.0566630956810907e-01  -2.9904493296722057e-01 -1.3928447283571915e-01 -1.3621291963954557e-01  3.0788680057974865e-01 3.4123247961110444e-02 -1.0492296022082900e-01  3.1111208100268872e-01 -6.0709698193924730e-02 -8.9067204958365495e-02  1.0262159596390695e-01 3.3276043189738735e-01 -8.4357686735210033e-02  -2.0359074514273709e-01 -2.7942785257083802e-01 -3.8632684774759486e-02  -1.5726599475146871e-01 -3.2062782881485707e-01 9.4253505235189286e-03  -2.3932495858509803e-01 -2.5817168083619618e-01 7.6354889275638983e-03  -3.0176118818508207e-02 -3.5287373177972170e-01 9.7159505945175234e-04  -9.7678772948955606e-02 -3.3841255280382171e-01 -3.3204349082944583e-02  2.9194506314981578e-01 -7.5102109396548877e-02 -7.1251525756121691e-03  -2.9944251156652157e-01 -1.7956067759596248e-01 1.2848056519979579e-02  1.7901585333467782e-01 -2.9192600178767492e-01 8.6969635029701103e-03  2.2946465440876315e-01 -2.2798991029393822e-01 -2.5594033746088634e-02  2.6017725933692221e-01 -1.9093160204832929e-01 -2.0036770820590745e-03  -3.2388246677177934e-01 8.8965070179328198e-02 -2.0860990091106694e-02  -3.2389450238754797e-01 -2.2733977823970210e-02 -3.3934994569379706e-02  -2.9691144246455659e-01 -1.3525199685073169e-01 -7.2362999591174940e-02  -1.6963406262376961e-02 3.4974475772774938e-01 -3.0352150526347359e-02  -5.7792792528818235e-02 3.4189177573278484e-01 -7.5894342348767962e-02  5.6317323103438760e-02 -3.5375952471989447e-01 1.4893275376805697e-02  -6.4371574921492369e-02 -3.6138528001947029e-01 1.9423603406551974e-02  -2.8013969324058041e-01 -1.5847062954030389e-01 -2.4341140761388869e-01  -2.9798494485327964e-01 -1.0758434897098142e-01 -1.9237608337250323e-01  -2.7552163481117403e-01 -7.1247348386765039e-02 -2.3933606709228442e-01  1.5923635265536948e-01 3.0113832722495842e-01 -3.1081822424782794e-02  7.0132737278913213e-02 -3.3038422852303534e-01 -2.1691885192226926e-02  1.6123451065583529e-02 3.5591829131005143e-01 -1.0698070693158351e-01  -3.6797017110573142e-02 3.5010301958717632e-01 -1.2355059618226837e-01  -8.1682393274345566e-02 3.3635985292255216e-01 -1.0124480912354925e-01  -1.9318036516601703e-01 7.4057881396875080e-02 -2.7439511938867017e-01  -2.0994532394916496e-01 1.1538395078406337e-01 -2.3204925783835492e-01  -1.5729174843516255e-01 1.8483351863138761e-01 -2.4375045034991441e-01  7.8118407074774215e-02 3.4360284261963098e-01 -3.8296487451801371e-02  -2.7209697856698473e-01 -1.9984347825943577e-01 -2.7127491327360420e-02  2.6946295396667713e-01 7.3440254072878242e-02 -1.6911894477574946e-01  2.6871918775407255e-01 8.0847945484763730e-03 -1.7873235656839878e-01  2.3744839146497795e-01 7.1965016217404268e-02 -2.0348176871382889e-01  6.7258857528297022e-02 -2.4645279671465342e-01 -2.4411159590285203e-01  1.6031144353588617e-01 -2.0909499954854791e-01 -2.0129034522317582e-01  9.7111164608306252e-02 -2.5642611515892677e-01 -1.9971094138799761e-01  1.7129554296519989e-01 -2.2750616639208637e-01 -1.6765704062996903e-01  2.9512916755597457e-01 1.8178815001864190e-02 -1.4972818744891644e-01  1.3305711185076885e-01 1.4608742633531291e-01 -2.6608122198939116e-01  1.5713583268711129e-01 2.0666816047097727e-01 -2.3488925921665862e-01  1.9394915374887131e-01 1.3163573526604985e-01 -2.3015530193042968e-01  1.9655043647932460e-01 2.7104820428278487e-01 -1.2648608556898108e-01  2.6768699927061451e-01 1.4844135607316869e-01 -1.0805605915750204e-01  -2.4787066992784210e-01 2.2651137537820266e-02 -2.2549664337969758e-01  -2.3491313775267336e-01 9.3047102361858036e-02 -1.9205118403495633e-01  8.7344473596984398e-02 3.4787194537303029e-01 -1.2799312183439701e-01  -2.3929778100188426e-01 -1.1302484694052392e-02 -2.6709908031607432e-01  -1.4815428926508445e-01 2.9263360711000652e-01 -1.0145720191893409e-01  -2.2292962259056553e-01 2.2271059574072716e-01 -8.6500253510376282e-02  -2.8113404564280098e-01 1.6187272719151166e-01 -5.0648382280736613e-02  1.5096734293893529e-01 -2.9901780577727965e-01 -1.1722324333190681e-02  -1.4261550466432571e-01 -1.4334672092277801e-02 -3.3770742963990580e-01  -1.7890362300803445e-01 -9.7213776113272449e-02 -3.3200102220090200e-01  -1.8169493820571508e-01 -5.0847630497732194e-03 -3.1479689136869715e-01  2.2770506314837663e-01 1.5552005490357851e-01 -1.9233407806561414e-01  -3.0793069482147867e-01 6.5040570480129914e-02 -6.1923406007253705e-02  -9.8893084800330683e-02 2.9436324228514099e-01 -1.7367499967079858e-01  -3.0769675488084559e-02 3.3048944797466623e-01 -1.7833582343255169e-01  -9.7426748944337477e-02 2.7826812498713582e-01 -2.1059542784916094e-01  -3.1064715953946098e-01 -3.1929610299470654e-02 -8.5280407749412368e-02  -2.9803173051354370e-01 -3.2495247939638337e-02 -1.3651952505244289e-01  2.6439045484936152e-01 -1.7745504881140053e-01 -7.7599975025267068e-02  9.6526908278912762e-02 -3.0014451083141530e-01 -7.6234121515949979e-02  1.8073696264459455e-01 -2.6253386946959256e-01 -5.1857319132159296e-02  -2.4256819628128468e-02 3.4573487304723072e-01 -1.4983708074313626e-01  3.0573293183918104e-01 -1.0442919293375047e-01 -1.0837370357854391e-01  3.2721543383263565e-02 -3.1238141862862145e-01 -1.1568561451821889e-01  -6.7769435907509001e-02 -3.3302984308293060e-01 -9.5185980422627034e-02  -3.6987662036743897e-02 -3.1586224074288993e-01 -1.5399339388545288e-01  -8.0099017109393905e-02 2.5482047810601066e-01 -2.4541483516100074e-01  -2.2110721102892145e-01 -5.1209220814221197e-02 -2.9969874646717565e-01  2.5292451623645867e-01 1.9671281030149571e-01 -1.2906029480690934e-01  1.8198586291046887e-01 2.9139167788653086e-01 -1.4289266146405033e-01  -2.7581107538921379e-01 1.3603696171374588e-01 -8.0770742757258415e-02  -1.0976806731502829e-01 3.0675982815627617e-01 -1.3400558557967482e-01  -7.0757767613256334e-02 -1.8471329689564581e-01 -3.3141034402324504e-01  -9.7415802684482702e-02 -2.4377500996601251e-01 -3.0363752961896467e-01  -1.4815366617197981e-01 -1.7674473515612985e-01 -3.3085438123391175e-01  -1.8027229872437012e-01 2.4385027002204904e-01 -1.2246706866870087e-01  3.2038113738861762e-01 -1.9357677874852319e-02 -1.1715820288006687e-01  8.5815453103193129e-04 -3.3781215783132207e-01 -5.2914882607016288e-02  1.3289911122508194e-01 -2.6787998387391576e-01 -1.3212169992410591e-01  1.9947130991124978e-01 -2.3601388126087222e-01 -1.0153802483763083e-01  -1.5876327812821003e-01 2.3982294127962026e-01 -1.6680496044173207e-01  2.6967405457248633e-01 -1.6736161210375267e-01 -1.1881588526718470e-01  3.0057762116967235e-01 8.1685877828158851e-02 -1.2215499095482599e-01  3.1454315529475779e-01 -1.2742062358109868e-03 -1.2932697310629568e-01  2.8941085189176941e-01 9.1349035079688806e-02 -1.3597535351186446e-01  1.8997860893156703e-02 3.5226481600038861e-01 -7.5238688791344946e-02  -1.5937191744622836e-01 -3.1292306086734656e-01 -8.7686667554971898e-02  -3.0745352506760304e-01 -1.2108969357477690e-01 -2.1749661939056215e-02  -2.3790570365315139e-01 1.7499788539834440e-01 -1.0926387934078369e-01  -2.7645340849903777e-01 -5.5412320248599369e-04 -1.8459591429696051e-01  -2.6162499120707389e-01 -2.1279038419959523e-01 -6.9575359911129203e-02  -2.3378621362720520e-01 -2.5731367619434892e-01 -1.0870297458157614e-01  3.0428513172184363e-01 -9.5194942717013467e-02 -1.3012421861304843e-01  6.0547234355800429e-02 -2.8336043791596982e-01 -1.7402974431816995e-01  -2.9002587800696972e-01 6.3194821564681453e-02 -9.9650878861159350e-02  -1.8591744248583827e-01 -2.2305226309554885e-01 -3.0171125051549152e-01  -2.1607036678060902e-02 -3.0169934541897986e-01 -1.9259289813386607e-01  -1.0498626901996526e-01 -3.0726975180501148e-01 -2.1109080707259006e-01  6.0228901662562071e-05 -2.8580701785872820e-01 -2.2408750858808008e-01  -2.5585940395951573e-01 -2.2229268243892800e-01 -2.4197251836792283e-01  -2.1164774866755795e-01 -2.7420726489794606e-01 -2.1650229286641343e-01  -2.7884901740766005e-01 -2.0012713469692014e-01 -1.9656566378229279e-01  2.8183691847087050e-01 1.3434167304542544e-01 -1.1876313915039031e-01  1.3524787586513295e-01 1.8894569561677324e-04 -2.7273410647958701e-01  1.1960510194615098e-01 -7.6541958367185900e-02 -2.7939275319705376e-01  8.3703455623085177e-02 -2.8571552574776986e-02 -2.9189826524049045e-01  1.4339171741743340e-01 3.0465956924997095e-01 -1.7460641154745976e-01  7.2445087513422865e-02 3.4730511808687581e-01 -1.6082624974109694e-01  1.8107007809384321e-01 -4.6626855444664939e-02 -2.4937864957520522e-01  -1.9004296270162757e-01 -2.9356845137795584e-01 -1.5341088580245565e-01  -1.1776232546140082e-01 -3.1679821052898738e-01 -1.4825437627828311e-01  -2.1202104217754719e-01 1.7740128881530007e-01 -1.5231254610599729e-01  -2.4939064246503476e-01 1.0391567993108758e-01 -1.5329305219512765e-01  -2.7302491193860490e-01 6.0800227227519391e-02 -1.3514600550838804e-01  2.0523235440628515e-01 -2.2222176884090977e-01 -1.3369793812622197e-01  -2.4166517293888240e-01 -2.5307328935409673e-01 -1.6829157039070611e-01  -6.3138361071101282e-02 3.2210168119647171e-02 -3.3662581775873013e-01  -1.9841769803813931e-03 7.4914866800753294e-02 -3.1437028998073074e-01  -1.7134502456462599e-03 -3.7611301561059317e-02 -3.2775767206104545e-01  -2.2418298453653517e-02 2.4831705470363657e-01 -2.7098457105762291e-01  -9.6103747158186301e-02 1.7827565448502053e-01 -2.9081318340417384e-01  -5.3808853226305416e-02 1.7443945547783349e-01 -3.0490118428623258e-01  -2.4078672674011906e-01 -1.9885138359786361e-01 -2.8075027848055562e-01  -2.0672134024044508e-01 -2.5301238890688404e-01 -2.6765144282411768e-01  2.4236682104789820e-01 2.0338757741177674e-01 -1.4387303107509589e-01  -3.7513984601031759e-02 1.2747453430221156e-01 -3.1988596810159364e-01  7.9495297328266476e-02 2.0880616398495644e-01 -2.7467479048879084e-01  1.3177024884878008e-01 3.3505776982455582e-01 -1.3905562060067553e-01  -1.4906500308132564e-01 -2.6607080530444827e-01 -2.8036434204250049e-01  -1.5803027037747891e-01 -2.8495512679870272e-01 -2.5126736552600104e-01  -2.3806956649169871e-02 -2.6870352230269057e-01 -2.6752985557851788e-01  -8.9474088031916379e-02 -2.8735638395816243e-01 -2.5928191428062231e-01  2.5019832881747744e-01 -1.7019354911292844e-01 -1.4488254915136867e-01  2.4607906658588011e-01 -1.4862886757101484e-01 -1.6677515069289503e-01  -1.3365010140738248e-02 3.2205643490430019e-01 -2.0286943391018911e-01  4.9629499627632835e-04 -2.2837799493978067e-01 -2.9416431682772909e-01  -1.9894721263844653e-01 1.6375924921478868e-01 -1.9521492110091770e-01  2.0419224478696271e-01 -1.5010223070048170e-01 -2.0613639621012841e-01  2.6431402962198952e-01 -7.4111866301779669e-02 -1.7684987122172777e-01  3.8278815879646669e-02 1.5591074174982111e-01 -2.9773021229338953e-01  2.7177554968313727e-01 1.5320016059570524e-01 -1.3273392640370474e-01  1.6092953010721919e-01 2.5545768769424648e-01 -2.0662418667225133e-01  7.4729667883174741e-02 2.6615986906066369e-01 -2.4882147152999445e-01  2.5463117039155578e-02 -1.6286048923018928e-01 -3.1339365534117836e-01  9.3685873403313996e-02 -1.4375615770984232e-01 -2.8807597439229748e-01  8.0759981459439772e-02 -1.9800538263866130e-01 -2.7405497971228909e-01  2.0900768446880139e-01 2.2967115792715445e-01 -1.7461581876021703e-01  5.0776796215982557e-02 -9.5488266550535980e-02 -3.1582920187801011e-01  9.1874776916575335e-02 3.4121949640589622e-01 -1.1288744475187619e-01  -1.5868665203554483e-01 2.1613327519774289e-01 -2.0838763965546400e-01  -2.1582343843099785e-01 -1.4679044839317362e-01 -3.1065220831659596e-01  -2.5491490471005462e-01 -1.1582327381047973e-01 -2.8105558523580010e-01  -1.4364518164967902e-01 1.5549785256047430e-01 -2.7468971196979131e-01  -1.5050097687567904e-01 8.6887826473980287e-02 -3.0707478860877002e-01  -1.5639796783823817e-01 -3.0210813444274770e-01 -1.8407586317922042e-01  2.6171895780555360e-01 1.3595718797364062e-01 -1.5803948445564578e-01  4.7357410673358975e-02 3.5966551323823881e-01 -1.4039433628055575e-01  1.3624192333309096e-01 -1.9409737465151983e-01 -2.3700867213219334e-01  1.5332156344492548e-01 -1.3494755439190909e-01 -2.5187353371595866e-01  2.9760534535573779e-01 -6.3025131201107587e-02 -1.4589676222712300e-01  1.5211183866309022e-02 2.9986904795573455e-01 -2.3060414442645680e-01  8.7131311841778993e-03 2.1271156742754316e-01 -2.9182431675787746e-01  -1.0806899702961674e-01 -1.0955520451486374e-01 -3.5007681919113853e-01  -1.0418379032596445e-01 -1.3333322747157173e-02 -3.4772232252733565e-01  -1.0369988667445275e-01 9.2245691074712477e-02 -3.2855634900596564e-01  1.2989273603699789e-01 6.7751215479069468e-02 -2.7055552211311784e-01  6.7368625622230602e-02 1.0534910644845569e-01 -2.9222975669988788e-01  5.9848991775510112e-02 4.2008567070085136e-02 -2.9065486979698740e-01  2.1241666367321405e-01 -8.9593432376723084e-02 -2.1970254842253834e-01  -6.3371067326475808e-02 -5.3443136385320653e-02 -3.4950542414470953e-01  -2.9526087001741596e-02 -1.1510348314314819e-01 -3.4119800294534786e-01  1.9589304947054620e-01 2.6287471922699995e-01 -1.5765823174238575e-01  6.5587440779096770e-02 3.2702663174939611e-01 -1.9146366840757320e-01  2.3425935594630934e-01 -1.6772401397547373e-02 -2.1164212664565060e-01  1.8807791459469772e-01 5.4497957622689205e-02 -2.4187339423477791e-01  9.1948166793455063e-02 3.0210139299234334e-01 -2.1194149527959380e-01  1.2931348050541877e-01 -1.3677162104905324e-01 -3.7539208155688057e-02  9.3350048716938652e-02 -1.7579000502279396e-01 -4.8774103823157187e-02  -1.6635864120823515e-01 -1.4832597724965188e-01 -4.7618636030683462e-02  1.5327641164116407e-01 -7.8037156101182392e-02 -8.5924902128006936e-02  1.1958716658174164e-01 -1.3235162673941162e-01 -8.4490447746917649e-02  1.2945905100762611e-01 -1.1727823310280241e-01 -1.1181541911538920e-01  9.1042138330798897e-02 -1.5048015772169746e-01 -1.0518799918349277e-01  -4.2429458788919801e-02 7.1628613340526795e-02 -2.5232458588982298e-01  -2.3536014905278669e-02 4.7298009657103471e-02 -2.6561337461594525e-01  -5.1010732457873062e-02 3.5790714326698864e-02 -2.5876182659970021e-01  -8.7345471143288431e-02 -9.9126903693141435e-02 -2.7876867825378271e-01  -5.3253130552353527e-02 -1.2062827284215574e-01 -2.8062407578665560e-01  -8.3629745789613297e-02 -1.2672031352040969e-01 -2.6811806984471576e-01  -4.0415927778623163e-02 -9.0377340050011745e-02 -2.9331412944883306e-01  1.9807025161461437e-02 -2.0007003897347098e-01 -8.7018285603339324e-02  5.2803927650792802e-02 -2.0442353708210817e-01 -4.8821571906047731e-02  1.0997314912627723e-02 -2.2011649452789708e-01 -4.6898968421413202e-02  -2.6812578490652900e-02 2.0842892829246586e-02 -2.7108394589374496e-01  1.3318997530373261e-01 1.4614565133464100e-01 -5.2784055189127814e-02  1.2478865737531961e-01 1.3426324637265705e-01 -6.7809828852961648e-02  9.7775323618723042e-02 1.7136717888948955e-01 -7.4769496167224267e-02  -1.1675149616626723e-01 7.4388950696614040e-02 -1.4467952620673891e-01  -1.2855632905219924e-01 6.8184965587706564e-02 -1.2866700506909226e-01  -1.1385680950761504e-01 9.4404342215731171e-02 -1.3175275298422595e-01  -1.8410811490504275e-01 8.2479997162612714e-02 -5.9894709199180170e-02  -1.2730688003708598e-01 5.2342983627347822e-02 -1.4702375932823478e-01  -4.8017403241530622e-02 -5.8898006142114635e-02 -2.9438343650812959e-01  -8.0959438942970127e-02 -6.7549448691436434e-02 -2.8427643586153184e-01  -7.3057582130221982e-02 -2.4890260489566510e-02 -2.8052530288605099e-01  1.4849544169372741e-01 4.5191375194614344e-02 -3.2801935923815501e-02  1.4337698699578108e-01 4.2724798809881698e-02 -5.3182676538715015e-02  1.4478591225211510e-01 7.1932808329410056e-02 -4.5466257555574041e-02  -5.5625122046988176e-02 -1.9532001858891476e-01 -1.