<?xml version="1.0"?>
<VTKFile type="UnstructuredGrid"  version="0.1"  >
<UnstructuredGrid>
<Piece  NumberOfPoints="635" NumberOfCells="1900">
<Points>
<DataArray  type="Float64"  NumberOfComponents="3"  format="ascii">0.2959294215008828 2.080227442099273 -1.335528635807338e-15  1.484057495835642 -2.354922273333711 4.402446850139176e-17  -0.3466025964366526 2.025619128857249 -1.298375542536902e-15  -0.9104192916121658 1.703439526154226 -1.410610023817176e-15  -1.328144740887137 1.213431561189189 -8.755747080401318e-16  -1.537035683877144 0.6058376656516411 -8.618995178958735e-16  -1.593418956733466 -0.03316807164727865 -4.284973451625478e-16  -1.431906920022123 -0.6369319872655983 -4.276007812717314e-16  -1.055267370344599 -1.13198953474272 4.54719692424887e-18  -0.4941296313418969 -1.422758282588316 4.478458767724473e-18  0.1352753558472112 -1.525825589175819 6.63598301584099e-18  0.7744977858523033 -1.453535822535544 7.438292309005453e-18  1.361578515405849 -1.188100802970806 1.601593261163104e-17  1.813192210792437 -0.732292115921102 -6.022859972028928e-20  2.073322655337046 -0.1508985986852678 -4.316472591741675e-16  2.113622440456183 0.4820873835929713 -4.36092241938832e-16  1.886850653856295 1.073511362329172 -8.871783624129981e-16  1.488245466087549 1.573833723515028 -8.746881289593867e-16  0.9273038547975588 1.894864866657191 -1.301752743601688e-15  2.086891900213362 -1.936945275518602 5.05392380739997e-17  2.58278670989412 -1.397686441206926 3.211211081067265e-17  2.946465388618643 -0.7615073469759717 3.190226469351655e-17  3.167805056111619 -0.05435477214164672 -4.066175858315597e-16  3.155184237718862 0.6971123634518732 -8.953023019847929e-16  2.828571408833402 1.375448094269762 -8.335795980823919e-16  2.301229236905064 1.897463955323388 -8.446598894031149e-16  1.658112418720508 2.250493092774578 -1.279663780213837e-15  0.9813288083253606 2.475520462274539 -1.289152271710651e-15  0.2931162792094587 2.643229098613317 -1.285978978269764e-15  -0.4199170065542802 2.680366792093083 -1.32978987598051e-15  -1.120322480462213 2.498383455735012 -1.312980621493447e-15  -1.74327943186511 2.123613578024377 -1.306084536937765e-15  -2.233729209380994 1.581765233315874 -8.493631547773387e-16  -2.546731878912821 0.922296345521373 -8.521530495371957e-16  -2.658414789388581 0.2029606635778237 -4.071875201798194e-16  -2.571863455656193 -0.5190717954563951 -3.731386488351316e-16  -2.317432248666672 -1.19858179785722 1.243111913690043e-17  -1.898530581013289 -1.793254397017999 1.996554827011093e-17  -1.327626636369194 -2.246667763882403 -2.609775545202025e-18  -0.6577475992787968 -2.537288269418038 1.26784158266534e-17  0.06108837104476774 -2.646728152096381 1.080388611616724e-17  0.7866571844081726 -2.586517711740045 2.25390356754371e-17  2.431298162608442 0.1947821237707661 -1.116566326223029  2.212999287813552 -0.4192219316665177 -0.6509157552870659  2.365845498976558 -0.3848416995950041 -1.407670501997993  -1.856558436929924 0.1775064100103106 -0.5229953740218988  -2.121635938038234 0.02539039164421857 -1.077598414312152  -1.831187948837277 -0.37298253333945 -0.5107237500815972  -2.129931895603476 -0.5705120216152791 -1.223742007641062  -0.6904810648881716 1.974013492859769 -0.8502537801625288  -0.09406070899058881 2.155276335144015 -0.6424091553920754  -0.01650642945418963 2.045076895739211 -1.245063304569997  1.747482909831598 -0.9660055804137601 -3.828511851649006  1.537995599143106 -1.268679640286538 -4.476883842383495  1.836964681078364 -0.8022786681319902 -4.559713777520338  -1.900757413195328 0.6309524333089216 -0.8652641924832047  -2.204583806886583 0.4217047443256045 -1.57419011382313  1.195657785622691 -1.82757320208074 -2.527741729836217  0.6516352007655403 -2.06702073168362 -2.804726016609759  1.093831925043727 -1.793813210099748 -3.186238268287134  -2.211056218756849 1.011999119540293 -3.521217083362921  -1.966096594567301 1.286693718228263 -2.864487058933626  -1.859275622162267 1.474744462442777 -3.415649542419796  2.196615137699261 -0.478002645894314 -2.172229240245849  1.936501389435159 -0.9754770454685145 -2.368136159272963  1.903062541056745 -0.6160111939474175 -3.119293229720686  0.3912955400458132 -1.862675293409046 -0.847158560837064  0.9645439959966573 -1.786454397014907 -1.100723399411504  0.714145330287115 -1.659798968036828 -0.5062573319436404  2.085471617221853 -0.9833692274460279 -1.680621717403272  1.404956267851098 -1.480975494470847 -3.748494101957138  -1.914266054906091 -1.211936586609143 -2.009619850295528  -2.18823130284208 -0.7344328171721416 -1.848167294090379  -2.031556915424218 -0.9640574147135466 -2.646238461050846  -1.940160339780973 -1.089440434766386 -1.369852011561965  2.087357167116609 1.240616410381574 -0.9818000479691854  2.286236708704457 0.7300614891983741 -0.7476856598273929  2.288960020713976 0.8180423351172612 -1.643132992108866  0.6210650008447489 -2.00438977317093 -1.496936795813777  1.256139226693148 -1.831110480201076 -1.726047196383988  -0.1880790924130253 1.945403149291223 -3.259025428470196  0.07828437014908991 1.871529508141823 -3.821509365911152  -0.4823468072191901 1.951477925581185 -3.802646517624613  -0.3025143422689842 1.915388718617697 -4.37858670166874  -1.144118355010239 -1.742467660909725 -1.207208476049769  -1.560283744012415 -1.393234389405634 -1.024060325764091  -1.556951703856909 -1.556353859013947 -1.650239815681733  -0.8516519163820163 1.0471868239875 -6.286641884896806  -0.9930538187345965 0.4434474608999915 -6.612038227301182  -1.385646418381159 0.7455318578926408 -5.93071141745799  -0.4418618483157796 0.8020373902424683 -7.000178939870809  -1.101224212167834 -1.85833648336192 -1.929523491950932  -0.6053196276666843 -1.958493283414268 -1.262412319238045  -0.2009841814967271 -1.832512336802421 -0.7046225516533376  -0.8015611252791557 -1.656265980789865 -0.6199337131392761  1.319710473010547 -1.444482176819555 -0.6468005888004154  1.807458699800066 -1.010982625067641 -0.5478887434227517  2.390576803684672 0.1691126155799592 -1.77732257904667  2.118735372805494 0.5085114040962782 -2.483768898357833  0.6604068538790697 -2.012808146696261 -3.480606316845523  0.2587735730184224 -2.157957023635034 -3.125837656575905  0.1511557309365588 -2.107821225585856 -3.685185698412659  -1.254487801985699 1.569918107838922 -0.571809170423239  -1.381468154047657 -1.415036907447641 -3.920121104576578  -1.432379205281977 -1.038708132606516 -4.624619600734027  -1.000634801275855 -1.457402584762641 -4.626932221392511  -1.738867586517425 -0.9615188082188879 -3.927366892259399  1.25436935123613 1.398379418805543 -5.553264363912922  1.086100357005685 1.325490783422524 -6.155012517590186  0.8301747434752286 1.596444637428836 -5.639595418311484  -2.25500834459687 -0.3822901586341268 -3.090303692153961  -2.390836573553293 0.1661937422149374 -2.91691364564875  -2.273144387132588 0.1465786021627322 -3.691118007077514  -0.3703986128217899 -2.065123994402787 -1.879318164057624  0.4829661847189935 1.457289495717754 -6.215564617302519  0.519966693227814 1.758664357731766 -5.161165165058507  0.368543453160656 1.72517517169974 -5.619476929763671  0.06189633612689589 -2.160319596732455 -2.484962570308029  -0.2510441359381345 -2.159892584955873 -3.174487932355579  -0.6101197504021482 -2.090995851543064 -2.582717775755635  0.6973939543720153 -2.07185610029739 -2.159937938477591  0.2317529356869548 -2.113470441515478 -1.897666151168283  0.6379957970460413 1.678875022571162 -3.787190328558903  0.406608576702493 1.798304553724902 -4.519395196005451  0.4374514191691773 1.766423525800289 -3.071369943401569  1.828846847737776 -0.7356354077779134 -5.351688662119788  2.008116622173199 -0.3140848627805076 -4.898333220541645  2.008013575568583 -0.1929499204951559 -5.742358296662628  -0.3616377633632616 -2.010521847485666 -3.927838015622967  -0.5344577380662092 -1.794669303313972 -4.487037454664674  0.09206774524393545 -1.954135492991649 -4.414891377142401  -2.366912920748464 0.5262823855090063 -3.464873816030889  -2.16101000198468 0.6565677208844815 -4.05868590092815  -2.313707639387035 -0.1258674962351691 -1.675213189819704  -2.332832693321857 -0.3232350477837839 -2.355564870664266  1.707783664813947 -1.450626340364195 -1.574564684236484  1.46568941771806 -1.574423643213396 -1.247176479484742  -1.650692048395266 1.196016738737007 -1.079582237019774  -1.61322360463395 1.357788537534965 -1.82853900790658  -1.938885168928011 0.907274947971937 -1.446944425788141  -1.179173890804707 1.656497382249559 -1.228525420229893  -2.093101106819527 0.933181008536848 -2.11262171459428  1.801696170043233 -1.255110137700715 -1.107585653598143  2.13837997146952 -0.8216770519337109 -1.060796021666883  2.287263919940016 0.1989800262024015 -0.5352742331305229  2.060360753779759 0.07448637440109709 -4.477646693659613  2.064858069798593 0.2504232438812571 -5.119152466780547  1.66350916713638 -1.460330118426892 -2.12493356699023  1.593951267646211 -1.292051795049442 -2.984194603749607  -0.8814002704945765 -1.792858269087366 -3.952530811225621  -1.055011512413536 1.788506276300509 -2.656387904719244  -1.498443290966536 1.669437833173257 -3.013297765486519  -1.593415712073899 1.491629748527597 -2.412402250137614  1.991040936569492 -0.3189232183826716 -3.993276310722115  -0.9994067812021818 1.70338046256792 -2.021419691186827  1.575076616374941 -1.036171196308759 -5.699886560146397  1.781503224122188 -0.707905339040821 -5.978433921313815  1.064983981916971 1.916412587120498 -1.418815546165306  0.4193213886383849 1.927897292244888 -1.699108227478823  0.6162598920134055 2.127642029899313 -0.8361641849075517  1.558930734196213 -1.16957129780767 -5.106184613346467  -2.366499455693298 0.2505645827958272 -2.297545513502235  1.124170547257939 -1.675086131490639 -4.359003511612184  0.6263863574700548 -1.952563141448448 -4.106833970194249  0.6674332499648749 -1.758995306578803 -4.956247250387904  1.600447140494066 1.159857118229159 -5.126701989166498  1.030212370740489 1.573539132567485 -4.948475385613451  1.435692242752829 1.2
[...]
<PointData  Vectors="f_5426651-0"> 
<DataArray  type="Float64"  Name="f_5426651-0"  NumberOfComponents="3" format="ascii">1.0694768731052366e-01 5.3296307681463195e-01 0.0000000000000000e+00  1.0671587368194420e-01 -3.4081657196488752e-01 0.0000000000000000e+00  -4.4768501366541751e-02 5.2963041368292962e-01 0.0000000000000000e+00  -1.8957783340512327e-01 4.7540906913718844e-01 0.0000000000000000e+00  -3.1124858825083906e-01 3.6702987176467428e-01 0.0000000000000000e+00  -4.0131268247464247e-01 2.2287926619337509e-01 0.0000000000000000e+00  -4.3556887804005184e-01 5.4855696621893331e-02 0.0000000000000000e+00  -4.2190338177107767e-01 -1.2615255366943631e-01 0.0000000000000000e+00  -3.5779971771034952e-01 -3.0530487552674568e-01 0.0000000000000000e+00  -2.4324372278794118e-01 -4.6003506615475609e-01 0.0000000000000000e+00  -9.5072090027939038e-02 -5.5079520310713259e-01 0.0000000000000000e+00  6.4057285368888897e-02 -5.5910840192825384e-01 0.0000000000000000e+00  2.0904711642899726e-01 -4.9032900016513481e-01 0.0000000000000000e+00  3.1859057338350028e-01 -3.6487523128600596e-01 0.0000000000000000e+00  3.8348331581290890e-01 -2.0442827840221428e-01 0.0000000000000000e+00  4.0529097846251444e-01 -2.6939658624787928e-02 0.0000000000000000e+00  3.9568787407698131e-01 1.5998047485753286e-01 0.0000000000000000e+00  3.3656129520167383e-01 3.2686701874497581e-01 0.0000000000000000e+00  2.3767859700974855e-01 4.7015480331422271e-01 0.0000000000000000e+00  1.7253326110264269e-01 -2.8923230522478388e-01 0.0000000000000000e+00  2.0963086043433904e-01 -2.1374156075957162e-01 0.0000000000000000e+00  2.2399244325951984e-01 -1.3217184390346590e-01 0.0000000000000000e+00  2.1938754852931716e-01 -5.7463875171194702e-02 0.0000000000000000e+00  2.1942338871146549e-01 -4.7154553065081794e-03 0.0000000000000000e+00  2.3643906021568506e-01 6.2306407247652719e-02 0.0000000000000000e+00  2.4881678254892253e-01 1.6240553011017031e-01 0.0000000000000000e+00  2.3406071592335884e-01 2.8517794980576866e-01 0.0000000000000000e+00  1.6149605411781370e-01 3.8848541438511269e-01 0.0000000000000000e+00  5.4096584328760508e-02 4.3026121011394514e-01 0.0000000000000000e+00  -5.6240330101005341e-02 3.9564971679813726e-01 0.0000000000000000e+00  -1.3568115268174163e-01 3.3641307179211588e-01 0.0000000000000000e+00  -1.9019275945644692e-01 2.6324568685648947e-01 0.0000000000000000e+00  -2.2722404755889497e-01 1.9358775667870379e-01 0.0000000000000000e+00  -2.5520011065318093e-01 1.2209465474472367e-01 0.0000000000000000e+00  -2.7335199722585907e-01 4.7582712019055541e-02 0.0000000000000000e+00  -2.8316475151422904e-01 -3.2904787101307863e-02 0.0000000000000000e+00  -2.6893988366063715e-01 -1.1463815296788940e-01 0.0000000000000000e+00  -2.4279963414076458e-01 -1.9665424466826537e-01 0.0000000000000000e+00  -1.9772346874097230e-01 -2.7078929289783682e-01 0.0000000000000000e+00  -1.3553061784940734e-01 -3.3277274353967867e-01 0.0000000000000000e+00  -5.5479560252349243e-02 -3.7238680651764861e-01 0.0000000000000000e+00  3.2212564135869835e-02 -3.7308940001406626e-01 0.0000000000000000e+00  3.8988714673417973e-01 -4.4228762284336760e-02 -7.0023449003630736e-02  3.7703798647820741e-01 -2.1483133613186994e-01 -1.9347347871279286e-02  3.8449020660227534e-01 -1.5809076448789999e-01 -9.8876192541053190e-02  -4.2847264600453550e-01 9.0077508468766956e-02 1.1275560417497832e-02  -4.1891013274261296e-01 4.8416455975769421e-02 -3.8857911779494311e-02  -4.3474222602682439e-01 -4.7845991252106035e-02 1.6715339384054586e-02  -4.1671163893287577e-01 -9.0844991285585291e-02 -5.5676238547879113e-02  -1.3000169636854333e-01 4.9122051770216180e-01 -6.2134504604816038e-02  -3.6305010360594067e-03 5.2387599538204888e-01 -4.9628613439579077e-02  -2.8869298422914936e-04 5.3452814999746967e-01 -1.1381126020865728e-01  3.7977931888707950e-01 -2.1371254455923194e-01 -2.8468749979016916e-01  3.1804237219820430e-01 -2.6665690007083309e-01 -3.3833429068271853e-01  3.7488567822777874e-01 -1.6007495900995336e-01 -3.2886685040072960e-01  -3.9337389645080767e-01 1.9219207771388458e-01 -2.2173940146050765e-02  -3.9876921809964216e-01 1.2636206595965366e-01 -8.8410703075921637e-02  2.1969635228995968e-01 -4.3153222444704303e-01 -2.0472619460908920e-01  1.1027380155226225e-01 -4.7871998498876855e-01 -2.2624172801869266e-01  2.2674587890740178e-01 -4.1311497905036892e-01 -2.5748562316798734e-01  -3.4619529236557672e-01 1.4313974432343551e-01 -2.8574958539675854e-01  -3.1654521235181093e-01 2.6227932694721218e-01 -2.0749886596832665e-01  -2.8902987020874105e-01 2.6863286148199339e-01 -2.6689431678463665e-01  4.0420001698991065e-01 -1.5072232418887968e-01 -1.8377552010659720e-01  3.7734914560376087e-01 -2.6122608411314591e-01 -1.9884258541707681e-01  4.1414075573705511e-01 -1.5283542847457307e-01 -2.4739741995523212e-01  6.1181034508292183e-03 -5.5398476351104486e-01 -2.2162591275780394e-02  1.3172663003453650e-01 -5.2042477898411565e-01 -4.7517793367712238e-02  7.3413654204320861e-02 -5.5418147330096201e-01 -7.4280386983369069e-05  3.5517132400475998e-01 -2.8133726023647149e-01 -1.2667642484370401e-01  3.0130203964257585e-01 -3.2653629787302996e-01 -2.9198107393293687e-01  -3.9166616451245195e-01 -2.7741524985731392e-01 -1.4896966459387437e-01  -4.1969366203783992e-01 -1.5412542515776467e-01 -1.2891589449643470e-01  -4.1949900629988784e-01 -2.5538945275033642e-01 -2.2196199931979019e-01  -3.9394198148617288e-01 -2.1990986066873056e-01 -7.3848039179678998e-02  3.5637236019504642e-01 1.9945300727073720e-01 -6.8329910016252896e-02  3.8857743653651250e-01 6.8498206118005722e-02 -3.6419707628128524e-02  3.7311251902938142e-01 1.2236270434656536e-01 -1.3595258594889470e-01  6.1884047989431548e-02 -5.2984479216646685e-01 -8.8747542191880330e-02  1.9246372695782349e-01 -4.6234897412293258e-01 -1.2211668694551966e-01  3.6166074608385956e-03 5.1765649608044384e-01 -2.4484083928134551e-01  5.4679233686060390e-02 5.1189158712289862e-01 -2.9054253224495885e-01  -6.1050006125850993e-02 4.8060891265991185e-01 -2.9385561978135560e-01  -4.5212559370116590e-02 4.6713557600449535e-01 -3.4225995944798954e-01  -2.8456516737435306e-01 -4.1580163482092780e-01 -5.3904097677128358e-02  -3.5483383439061489e-01 -3.0710369537583287e-01 -3.4054983247575235e-02  -3.4108308476994348e-01 -3.5424673912837962e-01 -1.0619845273521980e-01  -2.2709938187793069e-01 1.6361657775519037e-01 -5.3156296708728767e-01  -2.4498391657177646e-01 1.0105217241619526e-02 -5.5761630524115890e-01  -2.8649335674089838e-01 5.2014635784044805e-02 -5.0328438723708113e-01  -1.7781050153721645e-01 1.2910938475573691e-01 -5.6583615625707717e-01  -2.6434606643366959e-01 -4.4842038418062807e-01 -1.3589141323118106e-01  -1.8690489696655851e-01 -4.9580540517958244e-01 -6.0317428052738140e-02  -1.2670258867916015e-01 -5.3069712980661798e-01 -6.9546337327386406e-03  -2.5383981226389529e-01 -4.5059060314374039e-01 4.7432855308797289e-03  2.0857635404670044e-01 -4.8738572616380776e-01 -1.0892441402489341e-02  3.1098688647130557e-01 -3.7836178323068992e-01 -1.0658568846885100e-02  3.9633467897138336e-01 -1.7734398796705061e-02 -1.4566869437309127e-01  3.9220612657812393e-01 1.0753374720892912e-01 -2.1484192484633563e-01  1.2850236112903510e-01 -4.4716158889141600e-01 -2.8486753746757432e-01  3.1007768223747977e-02 -4.8498217935497023e-01 -2.5635004775802428e-01  1.4827281577792515e-02 -4.6594455289985970e-01 -3.1137228414972079e-01  -2.5917131930735071e-01 4.0515608350873505e-01 -2.5797532774917187e-02  -3.2733123263907127e-01 -3.9186376494740166e-01 -3.6077618916962306e-01  -3.4237733182703495e-01 -3.4054661578142748e-01 -4.2946726045305816e-01  -2.5015842390713822e-01 -4.1109004993542331e-01 -4.2514271771389023e-01  -3.9762114599137199e-01 -3.0996531252700366e-01 -3.6397828016834888e-01  2.0754839126654129e-01 3.7100291929739670e-01 -4.2078817551934039e-01  1.4663690974235064e-01 3.5737747775533268e-01 -4.8065477848624261e-01  1.1802122562623671e-01 4.0474278633983374e-01 -4.4219533665845939e-01  -4.3755643980095216e-01 -1.4838386663356279e-01 -2.6541688291286258e-01  -4.1668438803954339e-01 -1.2618650946684812e-02 -2.3391306152709226e-01  -4.1691393997435217e-01 -5.8921292545053891e-02 -3.2317626717330250e-01  -1.3051244677764751e-01 -5.2138247018978368e-01 -1.2711545067518792e-01  2.0311924000102132e-02 3.7138017634550274e-01 -5.0656209361832605e-01  8.1820736162745364e-02 4.4518229248070734e-01 -4.0099267819771917e-01  2.6279727851081371e-02 4.1174976258518631e-01 -4.5244969518834538e-01  -2.9601442863349342e-02 -5.1644120354690748e-01 -1.9217635840543390e-01  -7.7242396922479112e-02 -4.8967442916641912e-01 -2.6491375228904435e-01  -1.6430884240433075e-01 -4.9403882308723090e-01 -2.0384609524742300e-01  9.4067859961099010e-02 -5.0106787113280415e-01 -1.6421558750784188e-01  -9.6819078510979751e-03 -5.3008576589709544e-01 -1.3107087256667702e-01  1.7070189144671796e-01 4.9405720393586766e-01 -2.8398358314451067e-01  9.4142309489048948e-02 4.8396533945567261e-01 -3.4298439469852265e-01  1.3098375011524802e-01 5.1839255440074306e-01 -2.4075847173144893e-01  3.5361860534285405e-01 -1.3232665228303475e-01 -3.8434987284605715e-01  3.8817602446016192e-01 -4.0732424953092150e-02 -3.4390290831421344e-01  3.6008666816312684e-01 3.7975704022426746e-03 -4.0456036589110422e-01  -9.7060022693663248e-02 -4.6680421686343243e-01 -3.4323524720863552e-01  -1.3730351214472530e-01 -4.4574781477144004e-01 -4.0037685021478747e-01  5.3547521378298256e-03 -4.4390134259281289e-01 -3.7872736315574373e-01  -3.8691748698344475e-01 3.4911846131861213e-02 -2.8746091581288374e-01  -3.7617732619560101e-01 4.8783512659473380e-02 -3.4835895283492418e-01  -4.1718734471928548e-01 -4.3815591369508579e-03 -1.0477650512650544e-01  -4.2975171834727871e-01 -8.8000097135970595e-02 -1.8105737567769684e-01  2.8341011906931202e-01 -3.9286941713425089e-01 -1.0912043655676812e-01  2.3218741842034177e-01 -4.5059756311878879e-01 -6.8102168410693859e-02  -3.2529230053652258e-01 3.1846572507287668e-01 -5.2159612183458250e-02  -2.8977157621607869e-01 3.5566433990686780e-01 -1.1220237199755127e-01  -3.5999693652534281e-01 2.4429424950571663e-01 -7.6803219485319277e-02  -2.2582583658826791e-01 4.3170453861482716e-01 -8.0195105325432975e-02  -3.5498012228103809e-01 2.2273719106975648e-01 -1.3995382142895418e-01  2.9720971601980911e-01 -3.8432370843576674e-01 -5.9031910371020284e-02  3.5259692738255743e-01 -2.8148324421252452e-01 -5.6985568183469990e-02  4.0117743903969255e-01 -6.8340236989776024e-02 -1.3775665469706558e-02  3.9197774537635244e-01 4.5296408976761827e-02 -3.1097946914969737e-01  3.7005801939947858e-01 9.5170470320204564e-02 -3.5700453473637456e-01  3.0309183103967907e-01 -3.7156845218147133e-01 -1.7069900391871459e-01  3.4292266474082395e-01 -3.1668525265234593e-01 -2.4208671854713146e-01  -2.1474143724785991e-01 -4.4799931899872542e-01 -3.5611554615939972e-01  -1.6816242711000842e-01 4.5695235255948435e-01 -1.8569653535526021e-01  -2.3846065980975792e-01 3.7166708947566007e-01 -2.1874890494113436e-01  -2.6782214892543199e-01 3.6484659469777719e-01 -1.6202644206253539e-01  4.0925765739408587e-01 -5.7280057575581592e-02 -2.8192523046625378e-01  -1.7886854947105782e-01 4.7143640497821737e-01 -1.3989535571897047e-01  3.0249136623896505e-01 -2.0255342383652897e-01 -4.1724136700314390e-01  3.3404938295459241e-01 -1.1423798014172867e-01 -4.2790152329219322e-01  2.0257152610341544e-01 4.5593166202890845e-01 -1.3188147542930365e-01  8.8740672751938976e-02 5.3106893863231508e-01 -1.5609832234100904e-01  1.3350123944389639e-01 4.9974391922406469e-01 -7.0656825647886695e-02  3.0850073860381860e-01 -2.3664983709745685e-01 -3.8154445759356675e-01  -4.0910622651904727e-01 4.6778921143835882e-02 -1.6691923559044006e-01  2.2665875766668939e-01 -3.5392031218117947e-01 -3.4514741312169001e-01  1.2077732706478199e-01 -4.2133577216635365e-01 -3.3878121666867284e-01  1.2705984408161936e-01 -3.8451328739145235e-01 -4.0487782069395800e-01  2.8884967158810881e-01 3.1641446351516911e-01 -3.7116840129178913e-01  1.9497765197262179e-01 4.2476949627154803e-01 -3.6825242753730275e-01  2.9073519472371567e-01 3.6062855005670036e-01 -3.1681813933039149e-01  -1.7381565712622449e-01 -3.8081672744361528e-02 -5.8741763096621935e-01  -2.2456016095752535e-01 -1.0684387317596881e-01 -5.6921794588423047e-01  -2.7824802497446627e-01 -4.3410945790854372e-01 -2.9872870363862514e-01  -3.7318842489209836e-01 -3.6081358876982961e-01 -2.8559784208647082e-01  -3.9863805275589459e-01 -2.2988146719220473e-01 -4.1965718078922870e-01  -4.3027988161824060e-01 -1.8543002242315568e-01 -3.5064070420915738e-01  -3.9779759177565394e-01 -8.7264470450854351e-02 -4.0623309797833773e-01  -4.0537231647369742e-01 -1.7471878539617350e-01 -6.3163500683621051e-03  -3.5016345129370025e-01 -2.6426744371766819e-01 -4.6936437752362975e-01  -2.7572366781068680e-01 -3.4005393669029732e-01 -4.8605333809309237e-01  -3.7660311343382408e-01 1.1625080532299824e-01 -2.1777041376608494e-01  -1.6823540589463529e-01 3.5879638781463680e-01 -4.0128650020541534e-01  -2.7437086796017157e-01 2.2746006057659224e-01 -3.9841135863266097e-01  -1.8579601159857526e-01 3.8496759975377265e-01 -3.2815826196732351e-01  -2.4892424607268829e-01 2.0934485884560647e-01 -4.5860546514914746e-01  -6.9161452266638654e-02 -5.4040140997122899e-01 -6.3477628352180807e-02  3.2820306441709513e-01 2.0958169322808018e-01 -3.9447117002495297e-01  2.4566071203352008e-01 2.9548146633866229e-01 -4.5236112892073832e-01  3.6174984581983066e-01 1.9864275846535259e-01 -3.1340495323729461e-01  2.3939171456904993e-03 -3.2815879232817285e-01 -5.1674666267632552e-01  -5.3235991377433622e-02 -3.9454209938102713e-01 -4.8389659655152256e-01  -1.4573018774853541e-01 -3.5934369385100667e-01 -5.0828853448738720e-01  -1.6350155945941627e-01 -4.0860079892346501e-01 -4.6266906293152915e-01  -3.6520514124881449e-02 4.2501719275871330e-01 -4.1363799583276006e-01  -1.5725014685481953e-01 3.0738786577856858e-01 -4.7734946738473266e-01  -2.8148323087065502e-01 -9.5794090282027705e-02 -5.3955144763314855e-01  1.8191710168360925e-01 7.9986421510014324e-02 -5.3722907434195266e-01  1.8084259190587132e-01 -3.0619681018174097e-02 -5.4935983669373867e-01  8.4008272418317306e-02 5.4333179751574721e-02 -5.4968238528189650e-01  2.0917501097700286e-01 -3.9646832081917616e-01 -3.0268964103127083e-01  2.9043828108226816e-01 3.4428379105766455e-01 -9.9526403456376547e-02  3.2727275836776015e-01 2.7460989057976198e-01 -1.5045457276130525e-01  2.6554022747946771e-01 3.9000898286942343e-01 -1.6073685988983361e-01  2.9143523482382677e-01 3.6505390193803927e-01 -2.1737312855239826e-01  -3.5120513548463234e-01 2.9675091394224468e-01 -5.8934218309516498e-03  -3.8511986365460588e-01 -2.6136370869235509e-01 1.9637433912149192e-02  -3.8722173864461536e-02 -4.2723541463121123e-01 -4.3481053155737087e-01  8.0218638520368271e-02 -3.7321217379787558e-01 -4.6199791035271448e-01  2.5531929922649726e-01 -1.0154707586441675e-02 -5.1343514127704193e-01  2.6050463654713790e-01 4.0410845108030680e-01 -4.1118887195387602e-02  2.3470604413642840e-01 4.5661429555731192e-01 -2.4575775249873871e-01  2.7616971884093472e-01 4.1024100357921167e-01 -2.7957302481675766e-01  -1.8458087648312561e-02 1.4554644520877077e-01 -5.8504253906428982e-01  -1.2294613565333328e-02 8.3421326077087170e-03 -5.7068564912838671e-01  4.1371036429916436e-01 2.0573299038066171e-02 -2.4717226555477545e-01  -3.0477045687066148e-03 -8.7605338855401782e-02 -5.8580141434997302e-01  -8.9652555776247686e-02 -4.5676493528151963e-03 -5.8753869588145868e-01  -3.0873121166024142e-01 2.1107340338149458e-01 -3.3673406110357779e-01  -1.3867403565221173e-01 4.5270783617106158e-01 -2.4678485084082352e-01  -2.3364848596767435e-01 3.4670466169802117e-01 -2.8128905829373135e-01  -3.9630609557607915e-02 5.3924507608953809e-01 -1.5935824442712432e-01  5.9768208209579191e-02 5.3749409272150950e-01 -1.9898896212170028e-01  3.9369197844967541e-01 9.4434936183939361e-02 -2.7475303604271356e-01  3.4599434771141685e-01 2.8450538267401243e-01 -2.7288770615799063e-01  -1.2177272027506103e-01 5.0934022890272834e-01 -1.2017311233405867e-01  -4.2465081021009904e-01 -2.6600984260137556e-01 -2.9070608120519764e-01  3.3788784163956770e-01 2.8316219051080838e-01 -2.7113022996145451e-02  1.6177021530365407e-01 -2.8857656787044234e-01 -4.8553017041084473e-01  9.7994122538975881e-02 -2.4400354730500193e-01 -5.4043584146788293e-01  3.5645816440553879e-01 2.2087219026855659e-01 -1.9609768256480242e-01  -3.2079733145102091e-01 -8.5172160933451230e-02 -5.0318092819223037e-01  -3.4480292844057497e-01 -7.6373504042617016e-03 -4.5255821379182104e-01  -3.6398187199959031e-01 -1.3474344990766496e-01 -4.6308479817239356e-01  4.1316245084767156e-01 -2.7908603715850848e-02 -2.1875443791674756e-01  2.1127411957068609e-01 4.5373078247908899e-01 -3.1408319786282213e-01  -3.2511861241781198e-01 -3.6154369633423233e-01 3.9714406838478149e-03  3.0881936605576876e-01 1.5580275676608918e-01 -4.5013276065830199e-01  3.1962934263582476e-01 -5.3761961710560996e-03 -4.6194524038151208e-01  -2.3315371707699789e-01 -2.0603087649577151e-01 -5.5216131957099324e-01  -1.2816006784040479e-01 -2.7764013454458802e-01 -5.4729406456828744e-01  -2.2395982871319192e-01 -2.9686026349635758e-01 -5.2632485491497483e-01  -3.5187067842280195e-01 -3.6844911861670238e-01 -1.9041284725160187e-01  -2.7890310621454512e-01 -4.4032450251831967e-01 -2.3126422501294638e-01  -1.4875911529745828e-01 -1.6924370463564375e-01 -5.8037626728862102e-01  -3.1257902561963585e-01 -2.1347822127403432e-01 -5.1279040342746685e-01  -1.8501684970495277e-01 -4.7098309848600978e-01 -2.8306704918149883e-01  -9.0685966805907028e-02 -1.1146942853999825e-01 -5.9317759018654304e-01  1.8430542841553396e-01 4.8511363051739120e-01 -2.0027830923470447e-01  3.5351541908585843e-01 2.5904000830024915e-01 -2.3963201865698114e-01  -7.1435656042532408e-02 5.1670070250121680e-01 -1.8996901941484864e-01  3.1021643383179726e-01 3.5710848705923037e-01 -2.5080254579260353e-01  2.3077282658977372e-01 -3.2073928569766963e-01 -3.8843439339239094e-01  2.2208460871362978e-01 -2.9780091496584904e-01 -4.3339073376612636e-01  -1.2773235618744466e-01 2.8192212058204197e-01 -5.3419034949434396e-01  -3.4522347589843910e-01 8.1210543895839815e-02 -3.9760749583125959e-01  1.9243035031176278e-01 2.4316501847995250e-01 -5.1514805204593950e-01  9.8523157578751200e-02 3.2317622511687577e-01 -5.2291639773315590e-01  2.6995560630283527e-01 -1.8373080312848286e-01 -4.6405759427962601e-01  3.8597554916172200e-01 1.6857700586187005e-01 -2.5300304134753770e-01  2.0361828189844608e-01 -1.7609285114077877e-01 -5.2314781098732255e-01  1.1292473829294722e-01 -1.2531534800782848e-01 -5.6988688945630339e-01  5.0330228963000725e-02 2.4777998245731445e-01 -5.6385644698270188e-01  1.2233758370650077e-01 1.7916710218661383e-01 -5.5610487538362319e-01  -6.2768302855860186e-02 3.6588994197602498e-01 -4.8523144501507820e-01  2.4862675597926107e-01 1.2572515520738023e-01 -5.0777072122551126e-01  -1.1699109645287085e-01 9.1645764471623023e-02 -5.8447231841716085e-01  2.7589602856563861e-01 -9.6250777172220331e-02 -4.8982931398502710e-01  -5.6452711824924597e-02 2.6014200973563745e-01 -5.6202653735204877e-01  -3.0647618479022493e-01 1.2234554557296341e-01 -4.3963840361924306e-01  -1.5123545357272589e-02 -2.1271407248912250e-01 -5.6987594004359277e-01  3.4484903707754494e-01 1.2571296918556077e-01 -4.0738529817010816e-01  -2.0670889402941037e-01 8.2516037667750314e-02 -1.3935692575487421e-01  -2.2293543497709575e-01 8.3441203225371519e-02 -8.8747709947753425e-02  -1.9655054863639457e-01 1.0965017101331186e-01 -1.3057580050469442e-01  -2.2366117138489952e-01 5.0240510001568067e-02 -1.2646376343777729e-01  -1.5625672856590880e-01 2.0114158730161513e-01 -1.2681965784688223e-01  -1.8178817388486826e-01 1.5212135415730368e-01 -1.2737741094658125e-01  -1.8080563778113304e-01 1.9839884148633000e-01 -7.6058544106008860e-02  1.8655784046106544e-01 1.0262237815668343e