<?xml version="1.0"?>
<VTKFile type="UnstructuredGrid"  version="0.1"  >
<UnstructuredGrid>
<Piece  NumberOfPoints="627" NumberOfCells="1875">
<Points>
<DataArray  type="Float64"  NumberOfComponents="3"  format="ascii">-0.09128263854146546 2.617540770913425 -1.325448029856564e-15  0.1081987623702816 3.091737186403692 -1.318963880252022e-15  -0.8201967310853279 2.559303774930049 -1.335669257641565e-15  -1.463355050529578 2.219764671493616 -1.325656087440664e-15  -1.962567310965275 1.682306363565213 -8.873980542877053e-16  -2.280198508136424 1.022284418570775 -8.829204311880744e-16  -2.411283796551055 0.304901519365995 -4.423434697609771e-16  -2.308721157494007 -0.405296795280045 -4.374272920544434e-16  -1.947640855810007 -1.030104934803411 -4.385979030823569e-16  -1.408204004605068 -1.519780307514057 -4.394645040368683e-16  -0.7506963922970499 -1.84447602427854 2.711192884081945e-18  -0.01993759111985753 -1.957011053443129 2.184866658768242e-18  0.7105116896990528 -1.877557828489821 -2.135864975253645e-18  1.375116577008853 -1.570763619092842 -4.390948955670768e-16  1.922547236014574 -1.093315840906097 -4.446713564643899e-16  2.249789008439933 -0.4535391586559059 -4.410012858313322e-16  2.337849625304898 0.255362467998653 -4.452636739650262e-16  2.19306591071058 0.9514374560532164 -8.888695251673037e-16  1.818408027952329 1.568367760413792 -8.882714982958449e-16  1.27295945955028 2.060437611934204 -8.819737671668081e-16  0.6241577162147415 2.416607640408972 -1.324391009902086e-15  -0.6483642391147976 3.192543250120282 -1.312320593471262e-15  -1.406300003414085 3.064037716077492 -1.311419131546526e-15  -2.087044604144499 2.70328218942023 -1.313933055122899e-15  -2.640147776646876 2.163234118509309 -8.746729551466749e-16  -3.032810987672723 1.498458184278054 -8.824665440089541e-16  -3.255186561658002 0.7596797970634525 -4.416956522638962e-16  -3.302904919440541 -0.007744621248945049 -4.39921021867437e-16  -3.124926644169888 -0.7557925945979708 -3.744528414318271e-16  -2.787403887276244 -1.441845363653789 -4.26721034628968e-16  -2.316267083970435 -2.045767409303998 2.932588394285292e-17  -1.721099283210227 -2.532083189420665 9.401547853463716e-18  -1.017461121149861 -2.842347428768443 1.184618459442335e-17  -0.2559952155752701 -2.955122897308434 -8.781317688536052e-18  0.5076893485798269 -2.896255096611456 6.072493499313446e-18  1.239173985847853 -2.67224710197149 1.180224564422807e-17  1.903329336249033 -2.296099466601044 1.816167194221061e-17  2.469426464618155 -1.787598414373229 -4.353143468834929e-16  2.911711060855399 -1.165286007647057 -4.487880200633467e-16  3.204666376682909 -0.4586480368742623 -4.396055519521216e-16  3.302871696431095 0.3039048657624763 -4.431904268823497e-16  3.151444832432777 1.057141309496532 -8.936490818768589e-16  2.764860865921988 1.721078186173137 -8.830086268080929e-16  2.207034170463756 2.248002036296923 -1.325745803118839e-15  1.549384960455216 2.631607651898208 -1.337211815499586e-15  0.8384854876675858 2.898595209425506 -1.295507658468999e-15  2.28027634950406 1.380706550904012 -4.150665156510808  2.225844536350006 1.231943123243922 -3.555042740876455  2.598966751444722 0.8104898983659858 -3.951218114350675  -2.60691528574651 -0.2355878671761879 -0.597231600502596  -2.72709883424938 -0.4172347939854965 -1.097082851942369  -2.801969413263804 -0.08388807855922664 -1.704713657790603  -2.672603188797445 -0.712800609302438 -1.660666488976601  -0.8503149696486531 -2.302363924308539 -2.888182580756668  -0.3703736515159002 -2.471358487225843 -2.337599998956637  -0.9712184276726066 -2.304296204077171 -2.075475968557118  -2.638762960054142 0.8211360882503943 -3.088078972823103  -2.535460200768038 0.4267866446696705 -3.597992908081959  -2.711433583759593 0.2460675570039938 -2.988014409452477  -0.07984049349399935 -2.459903093761364 -3.052522700233289  -1.99474427039485 -1.544932724289697 -2.740248921222263  -2.044116173134418 -1.653374616121169 -1.929078979147158  -2.447173295222873 -1.115646855212044 -2.183197094137186  -2.300541181624306 -1.338191900544138 -1.389170067130707  -2.325908100943253 -0.8262312987998083 -0.4239262251578844  -1.924740106369763 -1.399858513025796 -0.5486093972695393  2.457759646769447 0.7783024041366287 -2.958985121890769  -2.360968683042859 -0.8811887642637033 -2.976768182203976  -2.453468844835054 1.034960932302198 -3.755637828883343  -2.702889818980695 -0.4075741023213212 -2.471714199740793  -2.575961437843418 0.854037441307809 -1.069114585388845  -2.34108266575615 1.329475093012717 -1.577106041485561  -2.689567331133729 0.6970801953289382 -1.637154424868331  -0.5853126938140724 -1.529949200121213 -4.855549339516387  -0.05446312265886442 -1.656293317609132 -5.032485668377157  -0.1942607726858388 -1.967762171872953 -4.445125389150491  -1.37254493695342 -1.890023886910512 -3.332719611335147  -0.6908814709782857 -2.221287438567825 -3.472196089362936  -1.504128627327647 -2.021630409783548 -2.483607244899337  0.3380671968182744 2.537825506720774 -0.8164566261949994  1.004831702664319 2.255001035971687 -1.240155519260255  0.3697589100558019 2.320258575035734 -1.62146421495881  -0.9361858345197397 -1.829456114667633 -4.045499415749871  -0.1712661147940479 -2.277114056419334 -3.830047780698576  0.4550891130669 -1.825343123202252 -4.907932420218956  0.9604465617614919 -1.899338243765236 -4.701812677492388  1.206690073091177 -2.079165573200067 -4.113998332943313  0.4596919676025963 -2.170241578859301 -4.251712425468196  0.5434811620829851 -2.383549842226529 -3.482668071646708  -0.184838101819048 -0.7915377740801531 -6.116576726274965  -0.6228096590683064 -0.8547885113613888 -5.66862537675368  -0.5452868437528278 -0.4095596564207707 -6.175184247898049  -0.94019514804121 2.308593945159981 -3.132231832508524  -0.4286318812008588 2.433512191291434 -3.647831461045629  -1.147608366951581 2.319992955165122 -3.790517208926572  -0.6602376168050338 2.317499795371163 -4.445277190503895  -2.08046946592955 -0.7078337322385018 -3.783356479541469  -2.472773998885085 -0.2587019554998684 -3.364153002125057  0.1237906802581542 2.38157150658992 -4.336024276806481  0.3058412536117433 2.297461113127644 -3.426631176242395  -0.2182021557898309 2.280647184306185 -2.766218535668264  -0.9972154615449483 -0.4573052033469907 -5.645674088786834  1.288510909207641 1.865851735420968 -2.983366423482278  0.5877889222447353 2.126114563443669 -2.612420946735287  1.147024813561776 2.016394465743875 -2.06435067032619  0.7554672574560544 2.212225042911424 -3.999373043505002  0.8058289072491065 2.116324052296102 -3.36485180816106  1.196652919930227 1.988197579900409 -3.673948983220454  0.9763621565951193 2.340080852380298 -0.6151803151196115  -2.249765479831444 -0.01379586170066089 -4.013819250880781  -2.200230333258298 0.6552195915910081 -4.339306584862281  -2.767414614906726 0.1924787189529283 -1.104745833342158  2.135160849624989 1.483322629421029 -0.7052208162314018  0.001961036589804802 -2.141425570003764 -0.6480676215627392  2.735031191069519 -0.3318989831799072 -2.28293276911335  2.779055966220842 -0.2492511145873954 -1.688261695158276  2.634603911952729 -0.8067334671904461 -2.007521592822449  2.719042533876537 0.2824865268836296 -2.254809022740918  -2.511317729944949 -0.8970298104530444 -0.9848602441484919  2.479532007176925 0.9664246147148763 -0.770955002081625  -0.4293820701265804 0.1682301259492814 -6.628840490327677  -0.9820925014121648 0.02461613041798523 -6.000116071758599  -2.568539987124055 0.5632608562470961 -0.5427353517896105  2.306269853373517 -0.8474527463131559 -0.5767412932206677  1.847161766775679 -1.398000418797332 -0.5004494922177486  2.220145944546249 -1.251210023278757 -1.056654425809875  -2.391502731939967 1.34164909906949 -3.288178125225497  -2.399563221764185 1.337137704349685 -2.556016747274331  -0.8915361420143945 -0.981047918704254 -5.260299688391926  -1.395474522900977 -0.5143531420136752 -5.077245449631818  2.427185423001899 -0.9842683988121919 -4.449307573271676  2.696360962043179 -0.3848881830820156 -4.508626492764812  2.594753563045766 -0.7841479578720546 -3.706288937891268  2.782629921043181 0.6526790325078543 -5.491862803825683  2.738147332373722 -0.03269336529788731 -5.298164211770557  2.767467242794726 0.168342955844133 -6.018120226101116  1.219735253869968 -2.221341974984802 -3.247163275297996  1.663794283947717 -1.930975322081941 -3.754477144717179  1.777530491525321 -1.72120670492701 -4.289350737651357  1.523586940987035 -1.641594674814484 -4.848379382845629  1.794464150981059 -1.877259333855881 -3.260046415436085  -1.758122968778655 -1.821420860212044 -1.237643644022578  -1.493231815768921 -2.051094425864171 -1.811115946009573  -1.082629266181393 -2.185185679467484 -1.412126393168257  1.584421217445834 -2.070985908850457 -2.587516025969345  -1.239694293102976 -1.148308335468186 -4.669544742620426  -0.3542578525186059 -2.363700169775541 -1.486378049983256  -0.3749760096642032 2.27091348603742 -1.872023491961245  -0.248042111468225 2.503147127252379 -1.206288396848649  1.573227100770501 2.010355264334845 -0.7936216186985705  -1.2692798482338 -1.926141404265928 -0.7473695647033118  -0.8224609284551682 2.399813037262073 -1.256185217035895  2.387343915184869 1.234103210921293 -1.310843193332371  2.74060842053288 0.4253673920854981 -1.242646110904296  -0.69772571446094 -2.155572018909222 -0.8765885302806331  -1.899722356874098 -1.268758664226238 -3.450496705531169  0.09624452658497269 2.202229236216738 -2.306680660563651  2.535933861002894 0.4668338758222355 -0.4872638264909493  -1.435036440960139 0.2132533149896939 -5.500635427235802  -1.853391370410167 0.6827218657970867 -4.962937398443797  -1.396542059007545 1.11374723461151 -5.577924337399941  2.576993327012687 -0.1900689464939942 -0.6478117893062401  -1.841403648989757 1.343071278568367 -4.713258132637606  2.165775298475352 -1.535866133215802 -2.900042360265559  2.392417910923635 -1.270183280206572 -2.312142748913772  2.077815789896161 -1.673214658023869 -2.228700487860527  2.279993180592406 -1.39998425346885
[...]
<PointData  Vectors="f_2095474-0"> 
<DataArray  type="Float64"  Name="f_2095474-0"  NumberOfComponents="3" format="ascii">3.6506538853265345e-02 3.9656542783778576e-01 0.0000000000000000e+00  1.7991994443715058e-03 3.4710924129131032e-01 0.0000000000000000e+00  -4.8453746204924833e-02 3.4636679538010751e-01 0.0000000000000000e+00  -1.2424366489952804e-01 2.8228982543570696e-01 0.0000000000000000e+00  -1.7783638566310564e-01 2.0801128478282269e-01 0.0000000000000000e+00  -2.2047466209529573e-01 1.1992056953533804e-01 0.0000000000000000e+00  -2.4494067751560655e-01 1.6288323876193455e-02 0.0000000000000000e+00  -2.5553840056762156e-01 -9.9244928449963021e-02 0.0000000000000000e+00  -2.4469597358807549e-01 -2.2056591688054583e-01 0.0000000000000000e+00  -2.0570397192476148e-01 -3.2271032874874811e-01 0.0000000000000000e+00  -1.4011768723776521e-01 -3.9455943053476400e-01 0.0000000000000000e+00  -6.1568768492196099e-02 -4.2365136156714528e-01 0.0000000000000000e+00  2.1561821005168475e-02 -4.0715169876702029e-01 0.0000000000000000e+00  9.3831814642463360e-02 -3.4669008684457608e-01 0.0000000000000000e+00  1.4544904834044670e-01 -2.5249253778665426e-01 0.0000000000000000e+00  1.7526911378909199e-01 -1.4035524490717055e-01 0.0000000000000000e+00  1.9043142738933322e-01 -2.0474086007031340e-02 0.0000000000000000e+00  2.0043909265427959e-01 1.1086417598504718e-01 0.0000000000000000e+00  1.9756424725163635e-01 2.3756904367508772e-01 0.0000000000000000e+00  1.7191581267535322e-01 3.4201875348587518e-01 0.0000000000000000e+00  1.1569882101134610e-01 4.0231717478768481e-01 0.0000000000000000e+00  -6.8830597782313999e-02 2.8698633368341753e-01 0.0000000000000000e+00  -1.0468149168787029e-01 2.2060530162118952e-01 0.0000000000000000e+00  -1.2640041438518324e-01 1.6228909479853487e-01 0.0000000000000000e+00  -1.3660800930201117e-01 1.0935371170424787e-01 0.0000000000000000e+00  -1.4734031385819876e-01 5.9940319930263504e-02 0.0000000000000000e+00  -1.5432401874616758e-01 1.0643731985500128e-02 0.0000000000000000e+00  -1.6110281473260640e-01 -3.7943566723467249e-02 0.0000000000000000e+00  -1.7226880377148762e-01 -9.1438267900176770e-02 0.0000000000000000e+00  -1.7507414209050881e-01 -1.5547231345044646e-01 0.0000000000000000e+00  -1.6334125381609960e-01 -2.1552809104703652e-01 0.0000000000000000e+00  -1.3628292532270572e-01 -2.6570084612256856e-01 0.0000000000000000e+00  -9.4379846682854610e-02 -3.0548042583808688e-01 0.0000000000000000e+00  -4.3248747071177582e-02 -3.2592596634776905e-01 0.0000000000000000e+00  1.3555284092819017e-02 -3.2166036415769705e-01 0.0000000000000000e+00  6.3879574956506271e-02 -2.9042179047476580e-01 0.0000000000000000e+00  1.0068492233451416e-01 -2.3664627179082812e-01 0.0000000000000000e+00  1.1894404035138682e-01 -1.6706791018452416e-01 0.0000000000000000e+00  1.1854691071277940e-01 -9.8748659490376200e-02 0.0000000000000000e+00  1.0776574479396916e-01 -3.7677960098901953e-02 0.0000000000000000e+00  1.0196501137285000e-01 6.7542203492875772e-03 0.0000000000000000e+00  1.1546443787911426e-01 4.9646846336890545e-02 0.0000000000000000e+00  1.3960158315455329e-01 1.1404932282109624e-01 0.0000000000000000e+00  1.5401715878462063e-01 2.0004781502221278e-01 0.0000000000000000e+00  1.3530027462451080e-01 2.9084709287592009e-01 0.0000000000000000e+00  8.3142464412652634e-02 3.4998357186811696e-01 0.0000000000000000e+00  1.8020858688574182e-01 1.9590997657000384e-01 -8.9997980860079180e-02  1.8367203468482035e-01 2.0096132809556091e-01 -7.8302546072793952e-02  1.8964837688289055e-01 1.1734352979208847e-01 -8.4982205508499248e-02  -2.3617116665253640e-01 -6.9568649658578036e-02 3.9338853577127238e-03  -2.1699809883109444e-01 -8.3198551940061566e-02 -2.4399182791002672e-02  -2.0217454049517009e-01 -4.4653725240964073e-02 -5.8043464699564853e-02  -2.0932232080549421e-01 -1.1958698767501470e-01 -6.0709185677826634e-02  -1.1703983012435358e-01 -2.9719547567715210e-01 -1.3821353776268103e-01  -7.3844385760361120e-02 -3.2360795146508581e-01 -9.4971771821395629e-02  -1.2079498729821093e-01 -3.1683666873951272e-01 -8.2893780672530407e-02  -1.6880500015818170e-01 2.2368648431495816e-02 -1.1549161944864797e-01  -1.9052964884584292e-01 -4.2107317290446068e-02 -1.5942023124958632e-01  -1.9312560037522206e-01 -3.9155770953828765e-02 -1.2668415798917104e-01  -5.1765556553896246e-02 -3.0142251938179282e-01 -1.3772552236481070e-01  -1.9748224551898336e-01 -2.2521961819083891e-01 -1.4083059982519738e-01  -1.9033606978002099e-01 -2.3435440128519214e-01 -8.1402451049967545e-02  -2.0589876999856804e-01 -1.6940173783932508e-01 -9.8865976490642812e-02  -2.0601505093164557e-01 -2.0359594622254854e-01 -4.2822421722281651e-02  -2.4342728723135837e-01 -1.6728189091125811e-01 9.0962625673511772e-03  -2.1937354044809365e-01 -2.6349959850651589e-01 6.0708793421623232e-03  1.8489994037657193e-01 1.3644980221632341e-01 -7.3809931642396354e-02  -2.1757313367080580e-01 -1.6366085749763731e-01 -1.5578531967106865e-01  -1.5587651975993241e-01 2.4012603309743794e-02 -1.4394456596344729e-01  -2.0656405076254508e-01 -9.7653230338310720e-02 -1.1042016410614258e-01  -2.0062838637299601e-01 7.4406753288630681e-02 -2.0600100711621612e-02  -1.6489301161741646e-01 1.3805528300329595e-01 -4.2042706932417261e-02  -1.8691620478499454e-01 5.0625219342501616e-02 -4.6483128181772304e-02  -1.2810763489425489e-01 -2.4826974379654188e-01 -2.5819042578061069e-01  -7.5320125007643401e-02 -2.4821350068833009e-01 -2.5290053217419234e-01  -8.1476904284392304e-02 -2.6561825422057744e-01 -2.2585873540231860e-01  -1.6908300036623941e-01 -2.6385760835676036e-01 -1.7785129984221931e-01  -1.1169217376566945e-01 -2.8696256468947323e-01 -1.7581751609738361e-01  -1.6256578662311214e-01 -2.7425177129461131e-01 -1.1819428848873881e-01  6.5032895505300156e-02 3.8788315963074033e-01 -2.8560632453263558e-02  1.1663295790132364e-01 3.6069077410816386e-01 -4.3998788393352882e-02  6.3322566933435812e-02 3.8050039998759549e-01 -5.8223814953427960e-02  -1.4830639067024237e-01 -2.6602012488464405e-01 -2.1954412099367507e-01  -6.7698437860554739e-02 -2.7954997770695322e-01 -1.8722508398869933e-01  -2.2702287773382290e-02 -2.4410505426233983e-01 -2.3105035874681251e-01  2.7276240360619951e-02 -2.2951061753577803e-01 -2.0368055615925945e-01  5.3023366303373495e-02 -2.3071812403706515e-01 -1.6774915918619493e-01  -1.3232506562262446e-02 -2.5845605868374549e-01 -1.9629439056710371e-01  1.6563727176550605e-03 -2.7765246323628290e-01 -1.5190850149100971e-01  -9.7096712462684115e-02 -1.7941423686188387e-01 -2.8763801318801163e-01  -1.3631246771399022e-01 -1.9513720975815879e-01 -2.8749573619895918e-01  -1.2390642921745706e-01 -1.4300663263268826e-01 -2.9294253749978039e-01  -3.6732621905103194e-02 2.8380307455068920e-01 -8.1563352345768378e-02  4.0947899711779503e-03 2.9946231679850421e-01 -1.0039410262061747e-01  -5.3741921859888971e-02 2.2749716024530356e-01 -1.1403551405491573e-01  -2.7482484315113572e-02 2.3339183643138267e-01 -1.3666098786106354e-01  -2.2607204229660505e-01 -1.6858130856347023e-01 -2.0911743500061511e-01  -2.1624496747336835e-01 -1.1098890308841736e-01 -1.7060740327024262e-01  3.9461006864386222e-02 2.9575817726267412e-01 -1.2074186045749494e-01  6.9019441094783890e-02 3.4551312895621727e-01 -8.6115198464828693e-02  2.3815126414443329e-02 3.5041253610003997e-01 -7.0130122446321608e-02  -1.6251495733814539e-01 -1.5689165011275860e-01 -2.8486535856660411e-01  1.4035241780956387e-01 3.2751113063342158e-01 -7.6685981520717414e-02  8.9159214026095085e-02 3.6744246274672476e-01 -7.1417009991674218e-02  1.2508544026545770e-01 3.4719352890861105e-01 -6.6592951363295377e-02  9.7674724537309479e-02 3.2690871067663269e-01 -9.9464097382932479e-02  1.0894962543536972e-01 3.4683903674436711e-01 -8.2041783691481976e-02  1.3298019072359005e-01 3.2372952355699736e-01 -8.6358640406654322e-02  1.2755510384596341e-01 3.7102263283060033e-01 -1.4670477092139346e-02  -2.1334113555727152e-01 -1.0170393839316794e-01 -2.0345220269686060e-01  -1.7927282849974049e-01 -3.2591919703963620e-02 -1.9350536563454665e-01  -2.0988121098759860e-01 -8.8584129422769609e-03 -2.4483813454359560e-02  1.8340353664731257e-01 2.0311748793986725e-01 -7.1880168765172643e-03  -4.0148887442868257e-02 -4.1078325489064094e-01 3.9297988041795510e-03  1.7320300307551606e-01 -3.2128920509282885e-02 -6.0021231327719034e-02  1.6842072904034583e-01 -3.5815336168624250e-02 -3.7246363789924679e-02  1.6482026936038005e-01 -9.9470558706838144e-02 -5.0088081208933266e-02  1.7812109914826849e-01 4.8671915542934790e-02 -6.0186542721478851e-02  -2.2106583086606518e-01 -1.5407634258185421e-01 -1.8277930736241513e-02  1.8278213467707546e-01 1.1150663897203324e-01 -5.3402527398892577e-03  -9.9943037922098465e-02 -7.0057211935108665e-02 -2.8336600371158988e-01  -1.4681096309835764e-01 -1.0150093902883942e-01 -2.8154551525751648e-01  -2.2666356722788503e-01 3.8238666802539081e-02 1.2255997838673711e-03  1.7005446931539514e-01 -1.6765175961576664e-01 8.3836583348040512e-03  1.4216228006572759e-01 -2.6997760373460061e-01 8.5803102920753507e-03  1.5230635561132336e-01 -2.0328824738732831e-01 -5.7671000479062109e-03  -1.4282566810688577e-01 8.1682832109117864e-02 -1.1092863651140296e-01  -1.4960327724024863e-01 1.1137798153258593e-01 -7.8200831951251673e-02  -1.5882581100004947e-01 -2.0813087352537293e-01 -2.7836672200927137e-01  -1.9311727304011828e-01 -1.6473478265008154e-01 -2.6774643479567106e-01  1.5107789169387020e-01 -1.0088302842769591e-01 -1.3029147679417402e-01  1.7300857382001580e-01 -3.5356844086595347e-02 -1.1382287747344916e-01  1.6955415326432996e-01 -7.2438046159910147e-02 -9.9970223473938830e-02  1.6877020746715971e-01 6.2032982710855326e-02 -1.2212178418971943e-01  1.6772239932920549e-01 -1.1171557635460863e-02 -1.2433811646099233e-01  1.4947775264640045e-01 7.4443361000326707e-03 -1.3813594001729221e-01  6.1755181699729655e-02 -2.5605782321381926e-01 -1.2537542748746008e-01  9.4510214807850226e-02 -2.0870841756628050e-01 -1.3722368082752839e-01  1.0039103158869059e-01 -1.8409122161767016e-01 -1.5604779912656294e-01  7.5057235196626951e-02 -1.9277957512454563e-01 -1.8694882616793848e-01  1.1027342824256380e-01 -2.1082525243693331e-01 -1.1220862028153461e-01  -1.8308572989366087e-01 -2.8290459122171574e-01 -3.1125353593948527e-02  -1.5939225219911929e-01 -2.9290957243779542e-01 -6.9477799703953846e-02  -1.3172154527472446e-01 -3.3746393451798196e-01 -3.8336477136963018e-02  9.3497366607310672e-02 -2.5014126034814393e-01 -8.7962487538976619e-02  -1.8528476064576607e-01 -2.2134568211888117e-01 -2.5723009221359133e-01  -7.1237092345051961e-02 -3.6344636174726330e-01 -3.6384256533126227e-02  -1.0229627671406087e-03 3.5975528651972699e-01 -6.0832388230295381e-02  3.3300450133312799e-03 3.6830205684164430e-01 -4.8023205761176961e-02  1.6183396545815215e-01 3.0483575574834537e-01 -1.8096212955200378e-02  -1.6197622656375271e-01 -3.4674393058767983e-01 -2.9723102870807690e-03  -5.2798798010938945e-02 3.3095796563976310e-01 -4.8039130905576113e-02  1.7625969186031981e-01 1.6227227976539249e-01 -3.2212606856552500e-02  1.7282829287553425e-01 3.9291386210809243e-02 -2.1654241119905118e-02  -1.0711191819059089e-01 -3.8297709304330940e-01 -5.8074287151701747e-03  -2.1318193333468044e-01 -2.1485494458419088e-01 -1.9279068286557052e-01  4.6789636474139654e-02 3.7427562449309348e-01 -6.6142250084981757e-02  1.8770165979292233e-01 3.1601945865013269e-02 6.3164215895029361e-03  -1.6933531202961724e-01 -8.5960885221822922e-02 -2.5948116424728129e-01  -1.6762119266794118e-01 -3.3135997555423152e-02 -2.1853128807629285e-01  -1.2735058016478201e-01 1.5077925131109546e-02 -2.1853081318432727e-01  1.7825749180948758e-01 -6.2398253717183667e-02 6.0021136849241329e-03  -1.3399311587358093e-01 4.7120272444341346e-02 -1.8067676625784274e-01  1.4059624322565240e-01 -1.7392357335807335e-01 -8.9789700764417363e-02  1.5370824823225204e-01 -1.5108472857810942e-01 -6.4575454313183719e-02  1.3220103639035091e-01 -2.0722972093508990e-01 -6.4832666678334649e-02  1.4486528707790369e-01 -1.8989938946284327e-01 -3.4539701010065559e-02  9.8303530891200946e-02 2.4395948726329700e-01 -1.5005888005403856e-01  1.5639129108339486e-01 2.2753577304044631e-01 -1.1335137797514667e-01  1.3412204520651677e-01 1.8999887172160798e-01 -1.4366690284539241e-01  1.2950049948981079e-01 2.9552889122242210e-01 -1.0576924057505031e-01  -8.2981600052893012e-02 3.1445033335510503e-01 -1.9641517368391224e-02  -2.1145021536198991e-02 3.5925712880974664e-01 -2.5778682922347172e-02  1.6389348984620955e-01 2.7211284314908518e-01 -8.4691746575310645e-02  1.7936854892295517e-01 1.3634463110390996e-01 -1.0625169120721355e-01  1.6721196856365830e-01 2.4976625100904964e-01 -6.2675624793014237e-02  1.4916268774111685e-01 3.0956873655734091e-01 -4.9887642156309829e-02  -7.8574336069797621e-02 2.1896394178694792e-01 -9.1673708233026799e-02  -7.2288409950847649e-02 2.6469858374842503e-01 -6.7775465966471077e-02  -1.1382996569200594e-01 1.6941684418996550e-01 -8.6071287820489256e-02  -1.9596196564900692e-01 1.3374658464945724e-01 -9.7135368849518896e-03  1.2193955991385830e-01 -2.7581957949442476e-01 -7.4226210716707699e-03  9.3725309912119359e-02 -3.3873082408398392e-01 6.4537531322347488e-03  1.8329461826507135e-01 4.1430804056318528e-02 -1.0395664058724659e-01  -5.8771549097554235e-02 1.6431087404954658e-01 -1.6804022743347996e-01  -8.2182198616341198e-02 1.5083067562841587e-01 -1.5052036017308987e-01  1.6876988809302115e-01 2.4997136617727062e-01 -3.6812489964984547e-02  1.7801896707050979e-01 1.3665593249180660e-01 -5.8733426281251756e-02  1.8084088236254295e-01 1.9611824944337844e-01 -6.9898413911882576e-02  1.7267150435092746e-01 2.5048260800320782e-01 -7.4980216883666531e-02  -1.0915635685326283e-01 2.7577147694511261e-01 -3.6048447650377631e-02  1.5372408733775303e-01 3.0589235485602434e-01 -7.2256265318520724e-02  -9.7172459820049684e-02 -2.2262961324267871e-01 -2.7655128194960171e-01  -3.9300876942437495e-02 -1.8084510265298120e-01 -2.6665035666306575e-01  -2.7976108509905243e-02 -2.2283699517685010e-01 -2.5232563967821758e-01  2.6487452491883078e-02 -1.7819364916170075e-01 -2.3004922894822302e-01  -2.2267505678328057e-02 -3.3012858683262836e-01 -7.6691272325717999e-02  1.7186996656770641e-02 -2.9544675571707479e-01 -1.0969112079070499e-01  4.8235614056932379e-02 -3.0720102644303848e-01 -6.2453857360899562e-02  1.8313055718485091e-01 2.3224476560705649e-02 -7.5273410839559476e-02  -6.8807949166127133e-02 6.7137072169150325e-02 -2.3320274828483531e-01  -3.6997979646499979e-02 5.5139743215442828e-02 -2.3673296178486936e-01  -7.5986538845699308e-02 7.6047765928321858e-04 -2.6107164861637133e-01  -4.9592199722330012e-02 -2.9255059345981868e-02 -2.6615492614342368e-01  1.6020475713849586e-01 -1.2564082945463939e-01 -9.4096084927806786e-02  1.7125760276945973e-01 -8.1911521819404309e-02 -7.6917782979816704e-02  1.3750221751078792e-01 -1.4939566947333216e-01 -1.2222259103622844e-01  -6.7399675053216257e-02 3.0251907362679675e-01 -5.5036975280378542e-02  1.0414745947539701e-01 -2.6454787873879532e-01 -4.2892554580127557e-02  6.7407328789827067e-02 -3.3119260531362205e-01 -1.7547087805527835e-02  -1.0283224399830454e-01 9.1737708886163172e-02 -1.8216320252003018e-01  -7.5429018446993276e-02 1.0062262483936722e-01 -2.0149536012082686e-01  3.6667041170540045e-02 -3.7756414296594409e-01 4.4793286039008698e-04  1.7062195031589539e-01 -4.5423693223806107e-02 -1.3867973483223210e-02  1.6476963538927300e-01 -1.1904482391127594e-01 -1.6079892069196154e-02  -4.6564386591905369e-03 -3.6822019670019823e-01 -2.4754447709772507e-02  -2.4562611334729673e-02 3.2926135665067208e-01 -6.3215501388346293e-02  8.6806038890131318e-02 1.8218616853400449e-01 -1.7365000700854680e-01  1.2407659166738028e-01 1.4207686036687706e-01 -1.5683255917267352e-01  7.5195175840587256e-02 1.1865383706279620e-01 -1.8316626332038366e-01  7.5211282536604779e-02 2.8519819411195213e-01 -1.3275959201869511e-01  -1.7436361919591176e-01 3.5992329443577754e-02 -8.5541324686360096e-02  -1.8973449485039545e-01 -2.2764652440623818e-02 -8.6398215830276612e-02  -2.0442898640674848e-01 -2.2596643543104264e-01 -2.2598614417761578e-01  -2.1824397640105919e-01 -1.6035432278334066e-01 -2.3961293571821327e-01  -2.0003553836381130e-01 -1.0022457665120610e-01 -2.3547544071129312e-01  -1.4203986775735698e-03 2.3613186140081022e-01 -1.5107195336921952e-01  9.5368387143809387e-03 2.1658367248765889e-01 -1.7113856581864026e-01  -3.2536426945215711e-02 1.7640541165172693e-01 -1.7973172918708835e-01  3.3922673992884136e-02 2.1412542218358627e-01 -1.7919074271256671e-01  1.9083080483096526e-01 7.9655096315170537e-02 -7.7437033249744339e-02  1.8472522408820041e-01 1.5424695083652100e-02 -8.8180462589059538e-02  -9.0716399909838472e-02 1.6426997090574558e-01 -1.1838612546798764e-01  1.4519668336365216e-01 -8.5160316652959131e-02 -1.4418242068400725e-01  -2.3649210151438074e-02 1.5666875688748097e-01 -2.0089743228047599e-01  1.2088359660826939e-01 -1.4700434166307014e-01 -1.5816370028451657e-01  -1.2403321968104578e-01 2.2931197182236235e-01 -4.7956817431862767e-02  -1.2155780214561916e-01 9.5214055444257317e-02 -1.3760246265784354e-01  -9.8281084451391762e-02 3.7051838316431510e-02 -2.2938983205044164e-01  -1.1599154554967551e-01 -2.4127194890293854e-02 -2.5943881344179420e-01  3.2094183442958328e-02 -2.0855596930665660e-01 -2.1991179751118325e-01  9.3548349434592004e-02 -1.4503273615172810e-01 -1.8515457817250403e-01  -1.5872329185480363e-01 2.0638866232138126e-01 -2.1177973913152785e-02  -6.0642739326806618e-02 -1.1248069084966431e-01 -2.7983390893489435e-01  1.3247082392879780e-01 -6.2294713317676671e-02 -1.5227440038918955e-01  4.8837450933613843e-02 -7.3411611985401456e-02 -2.2080775456937704e-01  6.2551556854927082e-02 -1.2941348297878641e-01 -2.0980369497298956e-01  2.0778843399135230e-02 -1.4056118818395980e-01 -2.3811801134922445e-01  -1.5008356816559895e-01 2.7033801755347371e-02 -1.6739629548561907e-01  -1.3055612984326692e-01 1.8525489364462591e-01 -5.9120573811884437e-02  2.7107702268859304e-02 1.3991758472628976e-01 -2.0132402794620197e-01  5.2142750443151212e-02 1.9747651570438682e-01 -1.8499640229985939e-01  -8.4332822339753047e-03 1.4316493303319267e-01 -2.1090859782465568e-01  1.4275355128722510e-02 8.1288166089523758e-02 -2.0704029363206911e-01  3.6175146685685146e-02 5.5074335138378477e-02 -1.9466754286559931e-01  1.5767350013510700e-01 1.2357724492936696e-01 -1.3218728998763205e-01  1.6092413544407277e-01 1.7098876805803975e-01 -1.2357826594964053e-01  -1.6716984113321509e-01 9.8662431826064670e-02 -5.9253615144646915e-02  -1.0262926291244494e-01 2.3804970294376848e-01 -5.9940273147427489e-02  1.8214993483733000e-01 -2.4424659084570571e-02 -8.3026008179605579e-02  -1.1412104141381531e-02 1.3773556287813458e-02 -2.3638953750818778e-01  3.8979550354275298e-02 -1.0031212176155366e-02 -2.1490144934733871e-01  2.2812239705328552e-03 -5.4571979134097691e-02 -2.4907647021537463e-01  1.2630582024296730e-01 6.8739133942558428e-02 -1.5210286523718530e-01  7.3830786026835196e-02 5.5001044293838085e-03 -1.8053081608039073e-01  7.9356136429967500e-02 5.4749219441155260e-02 -1.7087665441259664e-01  1.1565825063883993e-01 -1.8163575881862519e-03 -1.5965778667394992e-01  9.6335035259291865e-02 -7.9271132707272998e-02 -1.8290773273765606e-01  8.5432596975950639e-02 -3.2660304344085400e-02 -1.8388900971902838e-01  -5.8767752129873785e-03 -1.1624322919173687e-01 -2.5576442121305693e-01  -1.2197503846397485e-02 -3.0086702780669483e-01 -5.4254661277522126e-02  -7.0221227846488779e-02 -2.9845048989053768e-01 -5.1578006041877178e-02  1.1925560746693523e-01 2.1848580683202104e-01 -7.3737530503871815e-02  1.3905388541618155e-01 1.6199223045695452e-01 -6.3251959546936784e-02  1.3492928001241100e-01 1.7867562031574330e-01 -7.6194685686021280e-02  9.9370158245433354e-02 -5.1172222443706512e-02 -2.7424608263871005e-02  9.6011494462703129e-02 -7.5859103528198760e-02 -4.295319194