<?xml version="1.0"?>
<VTKFile type="UnstructuredGrid"  version="0.1"  >
<UnstructuredGrid>
<Piece  NumberOfPoints="627" NumberOfCells="1880">
<Points>
<DataArray  type="Float64"  NumberOfComponents="3"  format="ascii">0.7899546937827117 2.354306953835697 -1.326001280373344e-15  -0.1134605620167729 3.019788393595645 -1.328575462663423e-15  0.1442547608158062 2.522713624091074 -1.278245864679531e-15  -0.5192704530870497 2.523509566979618 -1.309293579870215e-15  -1.101198925703811 2.239756431504879 -1.340449516628009e-15  -1.506399895248936 1.727752213942252 -8.882016399792362e-16  -1.733388933222943 1.112196586070718 -8.824617480025869e-16  -1.770298963952861 0.4548284705800645 -6.570350611037388e-16  -1.648781798940096 -0.1738365610049968 -6.586418931250852e-16  -1.304306970195735 -0.702414760513608 -2.056806164720323e-16  -0.8041203950376659 -1.088067218227359 -2.227994469092939e-16  -0.2014599762217655 -1.287039072689127 -2.324800671244997e-16  0.4415027912837912 -1.297728807820749 -2.254237170023118e-16  1.06081725949488 -1.143350729613462 -2.336319613318359e-16  1.590898129980317 -0.7833177126883202 -2.262091884248591e-16  1.972247396587148 -0.2742378882372057 -6.663957722009645e-16  2.149566171804211 0.337797383893224 -6.64802361145805e-16  2.092026026541828 0.9722586908299914 -8.889398848454001e-16  1.815779901330714 1.553414018190965 -8.785902890159899e-16  1.362197770837007 2.017852988489441 -1.296882439366351e-15  -0.8105227194716315 2.958980568643647 -1.301386557831995e-15  -1.453929522652113 2.669384046436492 -1.290522365786409e-15  -1.975759785570119 2.201473054590446 -1.328739523091128e-15  -2.354512204560302 1.613817608055272 -8.7152213143349e-16  -2.578052629071987 0.9498682281288121 -8.641816837837013e-16  -2.650697631369616 0.2545376711842846 -6.691056190574565e-16  -2.532188654248162 -0.4346795943466428 -6.423273998964652e-16  -2.248437611757395 -1.070508938590633 -2.151727649024344e-16  -1.814469705312777 -1.615404408074261 -2.066575048557685e-16  -1.252268544849876 -2.02850495164196 1.490252383540382e-18  -0.6091855437048574 -2.288695329928698 -7.089486096956999e-18  0.08228509783126453 -2.371753067881873 1.630491912970109e-17  0.7710902484681533 -2.28396143844077 1.786423216097136e-17  1.420704024806545 -2.039562032626734 2.55621635545738e-17  1.992918376386221 -1.649207472706392 -2.07611755794436e-16  2.463305812232978 -1.139851256941415 -2.314953542585046e-16  2.811730711794215 -0.5370467981553618 -6.463443805482784e-16  3.015864371644615 0.1312263650214526 -6.29107106295699e-16  3.062363481769243 0.8355820527601404 -8.879295563945222e-16  2.903801292789185 1.533655992631662 -8.657797587204029e-16  2.505063134655303 2.135364916785411 -8.819412020763391e-16  1.921262462909672 2.556251698693959 -1.326923279595795e-15  1.260271205209085 2.805583229088395 -1.310046069174684e-15  0.57468516970979 2.935371972511035 -1.258574977654936e-15  0.1462202929545891 -2.342450821180265 -2.888978000311891  0.07798357640040005 -2.285643035957048 -2.23863475669153  -0.3581829718100009 -2.230641401451097 -2.707166602450767  -0.4090762479903358 -2.200501373567266 -2.171362512835747  1.767856023213584 1.518476880317591 -1.777679915510883  1.227003546014292 1.883531907869509 -1.681433356119531  1.771112451892399 1.725627382707128 -1.138465882451098  2.375523065387203 -0.1851452796594083 -1.410125472021197  2.126295281052859 -0.6887725096776386 -1.045846501549509  2.27705564342468 -0.7127040755991423 -1.715105415336409  1.778787397276958 -1.574777007427403 -4.185404897628548  2.082966898303637 -1.194630926427564 -3.768875986465925  1.82923555958882 -1.660369500156547 -3.456213698989351  -1.103886200535793 2.127874053065447 -0.9209196024110899  -1.563385230486905 1.713806683726043 -0.9339714810311737  -1.257674247586937 2.122306831670278 -0.4506722802710982  2.150343170476753 1.23663816010206 -0.654878596598221  2.08957473948949 1.336849791970366 -1.299800319500998  2.252115168288384 -0.1313411134289512 -0.684862927443697  -1.115716628592993 1.843202533455403 -1.49062615574107  1.628703198746188 -1.733038196884614 -1.906248692270715  1.148045340470785 -2.115720180281483 -2.286645207065298  1.799677020108289 -1.688979297118371 -2.618566644699804  2.03956300665379 -1.135082883234216 -4.515273099036426  2.323301848637879 0.8626083437263014 -1.251305701123005  2.096926924444715 1.134191361312565 -1.804670896516683  0.741509094946635 2.218167701109655 -1.177969607134499  1.338138721134582 2.079083576857946 -0.8768474198585253  -0.2118788797312978 2.484619282722681 -0.6280199066940808  0.3680190190293692 2.465124100561352 -0.5903419773237631  1.389598841112289 -1.64378657121635 -1.312346200194032  1.882952538142286 -1.242587753137991 -1.36459263478464  2.082446114391099 -1.230116018678996 -2.105799766152676  1.337296268415401 -1.39163542021428 -0.8365945975393685  0.9440359990525578 -1.727715950973646 -1.071349372769038  -1.668719576304253 -1.373906164794451 -2.636426704422861  -2.01806420053922 -0.9567069753182336 -2.516333993081946  -1.856568830384441 -1.027836855958766 -3.01198245673528  1.717271722753194 1.794078956781789 -0.4894871215003277  2.307740895541833 -0.4490684065083948 -2.880205450299627  2.294928601851279 -0.7284690487556599 -2.307610181681854  2.164587393422367 -1.108090867937573 -2.938289820702862  -1.964113104836861 -1.119191522170828 -2.074786228222836  -1.914524184218015 1.132301767043691 -1.30797019634545  -2.073221473728287 0.6506890765828757 -0.866582148444582  -1.86573693604524 1.178130009882399 -0.5337795998379707  1.971773706637583 -0.5858177981796993 -0.5001516042406308  -2.194952777586056 0.5442156212850522 -1.627063512870783  -2.329042348730455 -0.03918855454657585 -1.968251036533035  -2.240315966058573 0.09346551260451094 -1.253316711792605  -2.045216662994156 -0.6083621415667164 -3.392256625012051  -1.7256316157731 -1.046170735779745 -3.544029176068601  -1.835467907405066 -0.7002102331666988 -3.968889686384544  -0.7116416872428366 1.442447765009703 -4.124879118002449  -0.4594419637274428 1.605394369034105 -3.409475296452152  -0.1076126927805596 1.501194489836845 -4.1699519744186  -2.049397946714473 0.9023845172602417 -1.959198819793977  -2.232845748146751 0.5325539051693458 -2.437235063438463  -1.541824115836332 -1.594567702403398 -2.035906663162361  -1.779298873355474 -1.353283198645176 -1.495198606302366  -2.204137551776284 -0.5332785457897364 -2.687647370766717  -2.239329530334311 -0.1921142162656205 -3.16163910115286  0.1836951918589896 1.563351229786748 -3.526290719384746  1.377350490648782 -1.82292169305956 -4.509830890294671  0.9364925936977198 -2.1029479872264 -4.224521431749975  0.9271880286165551 -1.912786580460474 -4.832590896822982  2.254155540490688 -0.7000791864835177 -3.428001573406029  2.218976950531252 -0.606539125319439 -4.182156788648433  -1.350380835067174 -1.137662942529602 -0.4842142056641047  -0.8225591653299794 -1.447780572075783 -0.4623403912894136  -0.145307652239314 0.9869524087105696 -5.591677698056593  0.244791547986661 1.261030098513419 -5.159593820276926  0.4103675259938296 0.9455569735392502 -5.779633354110388  2.303958859569799 0.6146873239529008 -0.603010435850251  2.396321644251698 0.3322224463087392 -1.106193010668849  2.389658803299944 -0.06761237671311729 -2.2127013759057  2.406545322944889 0.3616930609547648 -1.625330287795002  -1.897856858355099 -1.017409437433405 -1.061705672058019  -1.34576113489084 -1.511695446313556 -0.9562988781094338  -0.7878321647536223 2.400868750258365 -0.5298514787962118  -2.214024688967704 -0.6272133026017425 -1.51940984022472  -2.057170763235151 -0.3514899448555327 -0.7788658892111395  -2.018524071283005 0.1987105096250109 -0.5338359899954288  -0.3393201244470948 1.318400887888293 -4.860691011610431  0.4528517960156885 1.462734321421824 -4.015610438800067  0.4094111339204303 1.395382645126683 -4.624749387947713  2.271924244689962 0.7012375194276773 -1.99429063623978  1.674403949325609 -0.996547848276802 -0.5939045721274183  -1.573833927521713 1.528026753767503 -1.433308012985915  -1.741669037234725 1.260958588896853 -1.990878483994321  0.001266956755303825 1.692441780051417 -2.791272756981168  -0.3517242008493513 1.813137597738074 -2.236309671830917  0.08658355242172643 1.899423976731522 -2.0399742854885  -2.085114310776579 -0.1875391242868382 -3.80853420026821  -1.353907077775114 1.527884891224431 -2.122922156153708  -1.917476066162361 1.047227204218865 -2.491660315166136  -1.222356718627226 -1.786499939853627 -2.642678847070446  -1.040003013088052 -1.940861308176327 -2.003507628934944  -1.685994781728878 -0.7613475294100995 -0.4753482314277058  -0.76796623874835 -2.081184486508402 -2.537497930763664  0.8355138706420261 -1.452232077085099 -0.48884900358725  0.3696236361165139 -1.712018022033734 -0.7569805271580324  -0.09280596710524444 -1.825391962158103 -4.95481617399316  -0.3002825072523017 -2.013457863074096 -4.207843920387962  -0.6698601432371066 -1.688031710708541 -4.558603310176681  -0.8241107763647901 -1.984938863680763 -3.093654307007244  -0.1610371641507441 -2.241501118352053 -3.544902798403127  -1.329435557764594 -1.53701057539188 -3.387992236785444  1.846670208304035 1.109631365639979 -2.455905208387046  0.00120800343783898 -2.182720608622937 -1.745628150732685  0.5764622993280788 -2.215449969310038 -1.998338493989889  0.4522790885403324 -2.024960003140508 -1.380247957406005  1.01357405021447 -1.976622508517954 -1.619378624892766  -0.7321710453500686 -1.898682958217384 -3.847454890838999  -0.909998100883996 0.1854267845145088 -5.850110946481299  -1.301744073848586 0.6152159219357024 -5.138249310074126  -0.7523282698832801 0.8896639164621236 -5.400968693099774  -1.1801384412833 -1.79025598143232 -1.426624317667968  0.6213361578891333 -2.31658304411626 -2.659860633272568  -0.7369387846059248 -1.815714984117516 -1.021517915715958  -0.8781242055121664 1.723030601111206 -2.193899879594291  -0.4692799333454101 1.950842964595127 -1.75095095952837  -2.251218596915248 0.3044719702825896 -3.21255519621315  -1.177582
[...]
<PointData  Vectors="f_5316519-0"> 
<DataArray  type="Float64"  Name="f_5316519-0"  NumberOfComponents="3" format="ascii">1.2849452503994363e-01 4.0478942251785222e-01 0.0000000000000000e+00  -3.5630982432526111e-02 3.3565104086610664e-01 0.0000000000000000e+00  4.0051743985023640e-02 4.2818431440010679e-01 0.0000000000000000e+00  -5.6305863928903542e-02 3.9227910651314962e-01 0.0000000000000000e+00  -1.5218212127771771e-01 3.3484012704439675e-01 0.0000000000000000e+00  -2.4687019437131513e-01 2.6752411297593831e-01 0.0000000000000000e+00  -3.1241187037047125e-01 1.7439992994048437e-01 0.0000000000000000e+00  -3.4574510947884762e-01 6.5133038237956742e-02 0.0000000000000000e+00  -3.4039971127863156e-01 -6.4665659123614938e-02 0.0000000000000000e+00  -3.0133241950278028e-01 -2.0194997895730551e-01 0.0000000000000000e+00  -2.2529573062235825e-01 -3.2037016679844543e-01 0.0000000000000000e+00  -1.1893104190160225e-01 -3.9884798731086396e-01 0.0000000000000000e+00  -1.7538022495099984e-03 -4.1873615732699149e-01 0.0000000000000000e+00  1.1309514458029640e-01 -3.8172306618042973e-01 0.0000000000000000e+00  2.0569836707917863e-01 -2.9932817033964343e-01 0.0000000000000000e+00  2.6482387310911237e-01 -1.8311712271842728e-01 0.0000000000000000e+00  2.8992336820842457e-01 -5.0238045856777498e-02 0.0000000000000000e+00  2.8355839250596271e-01 8.3888180758164482e-02 0.0000000000000000e+00  2.5151652366388849e-01 2.1203324848252586e-01 0.0000000000000000e+00  1.9934699898895414e-01 3.2719317539152187e-01 0.0000000000000000e+00  -9.8036666262932171e-02 2.8371011208463875e-01 0.0000000000000000e+00  -1.3645237472184515e-01 2.3242870554694825e-01 0.0000000000000000e+00  -1.7645992587802892e-01 1.8413364019459441e-01 0.0000000000000000e+00  -2.0703503134357251e-01 1.2951716996164397e-01 0.0000000000000000e+00  -2.2855406801491515e-01 7.2858814995281157e-02 0.0000000000000000e+00  -2.3546858966495715e-01 8.9916427738890338e-03 0.0000000000000000e+00  -2.3779455399793206e-01 -5.3869856375369354e-02 0.0000000000000000e+00  -2.2478118388503759e-01 -1.2207944589352543e-01 0.0000000000000000e+00  -1.9954118366764573e-01 -1.8717380488977217e-01 0.0000000000000000e+00  -1.6058643640507875e-01 -2.4809263089864766e-01 0.0000000000000000e+00  -9.8458996879016658e-02 -2.9143852964031319e-01 0.0000000000000000e+00  -2.7879640121291061e-02 -3.1439534632703103e-01 0.0000000000000000e+00  4.5238258820464554e-02 -3.0467062192318289e-01 0.0000000000000000e+00  1.0923448892479784e-01 -2.6775834673003163e-01 0.0000000000000000e+00  1.5755915814495264e-01 -2.0999966864823186e-01 0.0000000000000000e+00  1.8487402785915483e-01 -1.3984168382016895e-01 0.0000000000000000e+00  1.8780628914085865e-01 -6.6375789726288992e-02 0.0000000000000000e+00  1.7798480348975615e-01 2.7648918561471239e-03 0.0000000000000000e+00  1.5821893829541306e-01 5.8537193067059574e-02 0.0000000000000000e+00  1.4567598435484988e-01 9.9754660558704994e-02 0.0000000000000000e+00  1.4624330087181941e-01 1.4263069420883706e-01 0.0000000000000000e+00  1.4391493172286932e-01 2.1122385216359749e-01 0.0000000000000000e+00  1.1063207731375328e-01 2.9085049152965164e-01 0.0000000000000000e+00  4.6965324485216467e-02 3.4587616232267993e-01 0.0000000000000000e+00  -4.2768869523561841e-02 -3.7285423509828480e-01 -1.3992464070147295e-01  -4.8252735205152955e-02 -3.8160585135935626e-01 -9.1789677888129612e-02  -1.1458674101659268e-01 -3.7934380925998401e-01 -1.3543053456181225e-01  -1.1437090882009959e-01 -3.7787667806898279e-01 -9.4120396816570806e-02  2.0049901164752559e-01 2.7824959854613890e-01 -1.2652478095336558e-01  1.4246872708130123e-01 3.6635789148207498e-01 -1.3686326635793344e-01  2.0067169740348464e-01 2.7298597559947163e-01 -7.5778323659298208e-02  2.8190524411595808e-01 -5.9343042633318611e-02 -4.9842371082002998e-02  2.6442501803795349e-01 -1.7546433006786749e-01 -1.4604462087539915e-02  2.7141859920249345e-01 -1.2685113916222171e-01 -6.0071729645796497e-02  2.0429819685028561e-01 -1.9920849019147105e-01 -1.9367852181754289e-01  2.5416591576426256e-01 -1.3351718720838077e-01 -1.6970170844724972e-01  2.1030130692483087e-01 -2.1025761536491158e-01 -1.5753109131276374e-01  -1.5468423673216608e-01 3.2563313666031118e-01 -7.6521955195422514e-02  -2.1841403296448092e-01 2.5632811579303566e-01 -6.2485810015376730e-02  -1.8231520153522751e-01 3.0525018074263255e-01 -3.2622050186812135e-02  2.5147826035647064e-01 1.5609454441689491e-01 -2.6362833431480645e-02  2.3063734814809642e-01 2.0014519817283999e-01 -7.6798833791967738e-02  2.8357866510525476e-01 -9.7982725112884125e-02 -6.2225071535854382e-03  -1.5317356873923599e-01 3.3348912768747097e-01 -1.1807854989176703e-01  1.7586840928719102e-01 -2.8212309066929186e-01 -6.1982292557538517e-02  1.0479966965157486e-01 -3.2844918123167405e-01 -8.7069535370373208e-02  2.0322747070200006e-01 -2.3764845368992740e-01 -1.0922845762620763e-01  2.4130576139484886e-01 -1.2352542654442220e-01 -1.9825038500626033e-01  2.5964976064010176e-01 1.0989510847981750e-01 -6.1194925409595223e-02  2.3619784890149664e-01 1.9618484176188722e-01 -1.1314412859730162e-01  8.7954347662935820e-02 4.0812922278570873e-01 -1.0670442858808502e-01  1.6100342048234281e-01 3.4254648430625256e-01 -6.5301207384154708e-02  -2.7282309213188954e-02 4.0907558414496864e-01 -6.0465283907501471e-02  5.1288616170060614e-02 4.2068099046660840e-01 -5.4455120285411614e-02  1.5368080978135520e-01 -3.2616913505884537e-01 -1.4301206167537342e-02  2.2385266976614698e-01 -2.4533080848317776e-01 -2.5999027766077487e-02  2.4615834668590358e-01 -1.8789242010428808e-01 -7.9949885489670358e-02  1.6353583252319645e-01 -3.4242772143287487e-01 1.3137802097972478e-02  9.5106916712216105e-02 -3.7724834634069138e-01 7.4202638290955057e-03  -2.6925430200626654e-01 -2.6703189113300085e-01 -1.5659336140616947e-01  -2.8359043097970849e-01 -1.8544115905628086e-01 -1.4688759666965107e-01  -2.8158943332757763e-01 -2.2005410799195282e-01 -1.8217346283648306e-01  2.1456541094053114e-01 2.7153105537784217e-01 -2.4743468581651305e-02  2.9156684464710325e-01 -2.6528381064397397e-02 -1.3332454144500189e-01  2.8074933857730650e-01 -9.6789095682755039e-02 -9.9219638120628728e-02  2.6580305644736402e-01 -1.3421540134988602e-01 -1.2997296468438513e-01  -2.7740040981418934e-01 -1.9840224030630269e-01 -1.1210127603166224e-01  -2.5230091902318114e-01 1.8202126625298246e-01 -6.8880161285769931e-02  -3.0057989307328503e-01 9.7758178161926723e-02 -2.5939015517864601e-02  -2.8889218065782590e-01 1.7159466656225716e-01 -1.7592391845898232e-02  2.6201910472090656e-01 -2.0530541369874228e-01 7.1096982242194054e-03  -2.6986650636493981e-01 9.1649618597693730e-02 -7.8026958647924458e-02  -2.7508620237885328e-01 -6.8098860813317142e-03 -1.0080041584211769e-01  -2.9488076444172012e-01 1.5995716779362044e-02 -4.5171563121645796e-02  -2.7064671915254901e-01 -1.4605089807458868e-01 -2.0214166138088438e-01  -2.7147345122585798e-01 -2.3239866259466604e-01 -2.1558994403318954e-01  -2.5478684195584744e-01 -1.6897824978068357e-01 -2.3775100855363976e-01  -7.9271496983689335e-02 3.1221031968662649e-01 -2.4592576846012998e-01  -4.3528216207087966e-02 3.8574167252038871e-01 -2.1433834844185393e-01  -8.3126017894790440e-03 3.6404321270857615e-01 -2.5113040437979756e-01  -2.3929808224302057e-01 1.5429394368337834e-01 -1.0466135932959977e-01  -2.4426288827123108e-01 8.4758921845449073e-02 -1.3088649677107358e-01  -2.4596379115834285e-01 -2.8237064637076675e-01 -1.0434856485360096e-01  -2.6055859399407116e-01 -2.2626796639512914e-01 -5.9440631066246946e-02  -2.7852373081416959e-01 -1.1421173723214109e-01 -1.5551949574646790e-01  -2.5879213858202987e-01 -6.2553155558391915e-02 -1.8183642105939371e-01  3.7232411754299623e-02 4.1236973231874935e-01 -2.2330017235875627e-01  1.4439912760541140e-01 -2.5785878384338756e-01 -2.1657528200641807e-01  7.6340463431170208e-02 -3.1013226465669474e-01 -2.1546287187773186e-01  7.7097126843269817e-02 -3.0290431744449076e-01 -2.3926671142541117e-01  2.8453042154986452e-01 -5.3275489189507301e-02 -1.5491703843062693e-01  2.7614310164457112e-01 -3.4446151693176490e-02 -1.8418977786917473e-01  -2.6683503132547659e-01 -2.6429768527579300e-01 2.3875882049473034e-02  -1.9229225591037213e-01 -3.5306325534726268e-01 2.5202982477978812e-02  -5.1955603837713596e-02 2.1619258990740944e-01 -3.2418050072091981e-01  1.0183195406253830e-02 2.9087540936723932e-01 -3.0178337008984407e-01  7.6961445932202457e-03 2.3495708597345177e-01 -3.2713776132147104e-01  2.8011936919958869e-01 3.8015930811074010e-02 -1.3056713033022072e-02  2.7833524475159505e-01 1.1476702983677700e-02 -3.9790823717724091e-02  2.8552831826782199e-01 8.2105303081142569e-03 -1.0608110771136386e-01  2.7490639328582267e-01 4.4127336515839513e-02 -7.7276550878519326e-02  -2.8248182683027767e-01 -1.7728911960530752e-01 -2.0160637658178573e-02  -2.3315476896087403e-01 -2.8724184089137345e-01 -3.6055003047791071e-03  -1.0795853776760389e-01 3.6072739106564583e-01 -4.6079575764870234e-02  -2.8694750572576549e-01 -9.7276188088819146e-02 -6.6011466017017198e-02  -3.1346471350958843e-01 -7.0894441991554993e-02 -3.4850217886203058e-03  -3.2941648452465222e-01 1.5340932514651223e-02 3.6833208066283864e-03  -5.1703612985625071e-02 2.8119174214838621e-01 -2.8679414829193550e-01  6.5635187941537179e-02 3.8729156064333004e-01 -2.4063165197567685e-01  4.6174831684692080e-02 3.4379509571809180e-01 -2.7085641878770272e-01  2.6057714600593063e-01 1.2778428379060744e-01 -1.1229552882650065e-01  2.1917019883982070e-01 -2.8540216473539032e-01 1.2336954663856994e-02  -2.0724060502185415e-01 2.5942110594792450e-01 -9.4365514937101588e-02  -2.0935005055606901e-01 2.3041278590080694e-01 -1.1674572254988788e-01  9.1619348192892736e-03 4.3123595178775120e-01 -1.9852086369488767e-01  -4.7897023179811815e-02 4.2034295128676474e-01 -1.7387905023703978e-01  4.7648041015835776e-03 4.3592314355728790e-01 -1.7284370888146830e-01  -2.4142136981621731e-01 -6.7862235553837913e-02 -2.2074613872280069e-01  -1.6715634317756445e-01 3.0218751149360767e-01 -1.3763750052547488e-01  -2.1274270304915147e-01 1.8412016220568353e-01 -1.3927744903711178e-01  -2.2752633728530872e-01 -3.3105915316965290e-01 -1.4983648344450576e-01  -1.9144258825067881e-01 -3.4058837334701086e-01 -9.2352681384784502e-02  -3.0774296396278844e-01 -1.7527866985578650e-01 1.9638072904041185e-02  -1.6737045530915826e-01 -3.6468517812675910e-01 -1.3106543534983281e-01  8.7501205773738669e-02 -4.0118005873918311e-01 2.0344958338591276e-02  1.0725941352623157e-02 -4.1418826035474998e-01 2.0143083059950190e-02  -8.1339912895718500e-02 -3.3871962778655779e-01 -2.7650378748859800e-01  -1.1076265358823080e-01 -3.6086568459807578e-01 -2.4362161309757513e-01  -1.6428161518675780e-01 -3.3224350241569850e-01 -2.7278761763861431e-01  -1.8576138737409936e-01 -3.6268404141053179e-01 -1.7546952369585031e-01  -9.0154329333554772e-02 -3.7130180680600017e-01 -1.9323565388143127e-01  -2.4811995244781093e-01 -3.1067678059629023e-01 -2.0534038864885346e-01  2.2335344813425370e-01 2.5306761752280460e-01 -1.6007260747119853e-01  -5.3356073835092180e-02 -3.8696768526292197e-01 -5.1529523115936157e-02  2.4640967141375678e-02 -3.7206344009564540e-01 -6.6886508110927848e-02  1.6240356192201700e-02 -3.9127523136736853e-01 -1.7132351215376124e-02  9.2308160551092089e-02 -3.5649123887396528e-01 -3.4628026502089092e-02  -1.7607454754301474e-01 -3.5489643133717352e-01 -2.2690604755067373e-01  -1.3840576961658987e-01 2.0398224094323358e-02 -3.2456334730637615e-01  -1.5430074116004655e-01 8.1404826383879733e-02 -2.8722771511061113e-01  -1.0920601344596528e-01 1.5916276186291928e-01 -3.0787238871620981e-01  -2.0353531930400118e-01 -3.1774427102283626e-01 -4.4418723250158020e-02  2.6795161311530456e-02 -3.5919310279585459e-01 -1.1623343662342894e-01  -1.5188417930895756e-01 -3.6303532321295301e-01 -1.6389384332595792e-03  -1.1242966393754572e-01 3.6992499819417296e-01 -1.5618113266686462e-01  -6.9816141003521445e-02 4.0753829377614437e-01 -1.5276421258251072e-01  -2.3333804057747357e-01 2.6155338593023356e-02 -1.7946505929622289e-01  -1.3523122889826544e-01 3.2444189065294154e-01 -1.6775946509221962e-01  -1.7724213628912680e-01 2.4962006870961331e-01 -1.6014082602596061e-01  -1.2063347804084890e-01 2.0619762710930814e-01 -2.7322879193021693e-01  -1.3251770018596759e-01 -3.6985141058397414e-01 -4.9570637855833509e-02  -2.8351531716300876e-01 -1.1808121382416305e-01 -1.1789059022604143e-01  1.9640602882649560e-01 -1.9484280717604222e-01 -2.1471212453761260e-01  1.6814543410161614e-01 3.4273136348457972e-01 -1.7000110729524226e-01  9.5307149391726062e-02 4.1735801406986339e-01 -1.9255907766552188e-01  1.2236865758320607e-01 3.9173650073691346e-01 -4.4381980814446081e-02  1.5165786138449233e-01 -2.3142637662826787e-01 -2.3192737263007229e-01  2.5234769044733805e-03 4.2705711354935783e-01 -1.2563820697291722e-01  6.2006691337800603e-02 4.2536251176259304e-01 -1.5987467222817509e-01  1.1883030932199884e-01 3.9648705429533604e-01 -2.1492491823313128e-01  1.7645379209339326e-01 3.4455346238496465e-01 -1.9150549189851854e-01  1.7733953998049767e-01 3.3228429040240354e-01 -2.0958082556002908e-01  1.3089437783445873e-01 3.4327841679553800e-01 -2.4251614035689426e-01  2.2954984383551486e-01 2.5270929105347212e-01 -1.8387641316820635e-01  -8.6623743429404043e-02 3.8492942884798476e-01 -1.0442652557279516e-01  2.4560235319003110e-01 1.4578113589037209e-01 -2.1281347130015080e-01  2.1423331515674537e-01 2.4888814117113739e-01 -2.1341299074308498e-01  2.5673476594773903e-01 1.6215366454510100e-01 -1.8716792492706416e-01  2.0387664993561264e-01 2.0093867634605844e-01 -2.4815789797680879e-01  2.6424367733848281e-01 1.5005902474618513e-01 -1.5032912804595275e-01  -2.0586156916573309e-01 1.3645190796478227e-01 -1.7070338710319111e-01  -2.0248761937080378e-01 6.3729086235880833e-02 -2.2063247924965831e-01  2.7650088770700409e-01 6.3696732440971085e-02 -1.8343063324036640e-01  -1.7133349118447208e-01 1.8997300755581092e-01 -2.0631078134530201e-01  -7.4751542351613201e-02 3.8294988769433114e-01 -1.8739479584907090e-01  -1.1724529588636141e-01 3.0991687884075608e-01 -2.0312876209871381e-01  2.6135054819588205e-01 5.2679991693275335e-02 -2.0802186321414440e-01  2.8597640481254782e-01 6.6864824346599239e-02 -1.4440423004356401e-01  2.6257167686559213e-01 1.5630760447361083e-01 -1.6956357309471329e-01  2.8672738460386110e-01 5.1819269815801289e-02 -1.6469446081838943e-01  1.3269578185822659e-01 -2.7582172301356578e-01 -1.8063205556421746e-01  -2.1975462968513215e-01 -7.6428171146716101e-02 -2.5163726585172780e-01  -1.6625930366506431e-01 1.4056996567862035e-01 -2.4891959576009595e-01  -1.8835881631124737e-01 6.7690474788952284e-03 -2.6494737249338296e-01  -2.5694648581751889e-01 -6.5624093031645507e-03 -1.4664702492783216e-01  6.1723821844153710e-02 4.2783443936236609e-01 -2.0953420468250719e-01  1.6286385176473611e-01 2.7929872686599855e-01 -2.5504797697181142e-01  -7.6113772575739119e-02 -3.9544888826369701e-01 -3.4298071715331978e-03  -8.4540304612676004e-02 -4.0999001915357819e-01 2.3921596487680403e-02  1.4887443282508290e-02 2.7647546675794273e-02 -3.2904394917872226e-01  8.6655870559121856e-02 8.7639646109038433e-02 -3.1796051217601939e-01  7.0951169390763014e-02 9.6241820702970323e-03 -3.0094876476271826e-01  2.5078018930559964e-01 -4.8180399646046958e-02 -2.1428389250613866e-01  -1.6285961008838744e-02 -3.5075776024233929e-01 -2.3449286673094411e-01  1.8948013602727434e-02 -3.4648762852419390e-01 -1.7621543355864316e-01  -1.3316328290912263e-01 2.4082687567793473e-01 -2.3647617730579421e-01  -2.2565691899666168e-01 -1.7555054049869348e-01 -2.7454569612914831e-01  -2.4829275805734952e-01 -2.5643537671018346e-01 -2.5009309359729320e-01  8.7240722265269868e-02 -3.1972891601742653e-01 -1.4045981197846816e-01  1.5261762653938066e-01 -2.7671032013989522e-01 -1.3630011808010481e-01  -2.1065845802016420e-01 -2.6329585246979642e-01 -2.8644478756319591e-01  -1.7829973400574564e-01 -2.2852857517828482e-01 -3.1299003392497177e-01  -1.8931213831185084e-01 -1.5830427543443606e-01 -3.0585129819066587e-01  -1.5073568313649846e-01 -1.8485967237408962e-01 -3.2807869457711319e-01  -2.1845578361150866e-01 -3.1389726987702216e-01 -2.5134996544601712e-01  -1.5485204153264162e-01 -8.9687720845199589e-02 -3.2282634422513168e-01  -1.4745719751623212e-01 -2.8438141762493568e-01 -3.0632181350455540e-01  -1.1751849776174320e-01 -7.9778005724747927e-02 -3.3907069719410532e-01  2.3049070639899413e-01 1.1862594565567047e-01 -2.3901591729175756e-01  2.4593059618095041e-02 1.0572689938351214e-01 -3.3659780724781535e-01  -1.7147907849743543e-01 -4.0823848688231426e-02 -2.9993298162422766e-01  -2.0293420637768828e-01 -9.7248980289874082e-02 -2.8095354203578049e-01  6.2067756666496637e-03 1.6296183385173557e-01 -3.3856434173289263e-01  9.8760789752236205e-02 1.6959437907643460e-01 -3.1594735042419447e-01  6.7493267053893496e-02 2.2891988812151032e-01 -3.1974668277409413e-01  5.6869175053129314e-02 -2.0953919065563489e-01 -2.9213643415492263e-01  1.2371925388905264e-01 -2.1640837067379393e-01 -2.5698385749124963e-01  7.4451542434440118e-02 -2.7482991580823996e-01 -2.5644774087718375e-01  1.4784233964883606e-01 -1.4433214091630603e-01 -2.6865537120145921e-01  2.1675253391441046e-01 -1.3392753734347537e-01 -2.2114471784998882e-01  -5.0142808433250224e-02 3.4660499374508762e-02 -3.4058531401144432e-01  -5.8859225798572959e-02 1.4415309193350623e-01 -3.4093733310656688e-01  -9.8148366511932192e-02 1.1986885393822404e-01 -3.3442293358059688e-01  -1.0107436561264570e-01 3.1825034336155453e-02 -3.3996635732503994e-01  1.3916864193189615e-01 2.2766699279298483e-01 -2.9007450477632774e-01  1.6665487931225430e-02 -1.4232321128614719e-01 -3.1980506820070453e-01  8.8447970891894476e-02 -1.2578868506336277e-01 -2.9914817112046682e-01  1.8608908995730444e-01 1.4211214955938226e-01 -2.7114205140243747e-01  8.6534099848671164e-02 2.9122782296850391e-01 -2.9221986409307843e-01  2.0899876328729136e-01 -6.5464472254181116e-02 -2.4499602248211977e-01  2.3398164653375605e-01 3.6814301418643919e-02 -2.3850718426087381e-01  2.7554791812754848e-02 -7.7610971660997050e-02 -3.2029034784189558e-01  1.2008065499318701e-02 -3.2446190773093286e-01 -2.5928760216001950e-01  -4.4692337054550516e-03 -2.9160620478615012e-01 -2.7930269117915069e-01  1.5030055429468747e-01 1.0611465328323029e-01 -2.9256782549049909e-01  1.3940389178052737e-01 3.6737758633318109e-02 -2.9323447420477899e-01  -7.5040190422802008e-02 -2.8054830603985215e-01 -3.0158450219257626e-01  -1.0495546707611472e-01 -1.5579211272006671e-01 -3.3670448676998477e-01  -1.1072925776463829e-01 -2.2982819946519015e-01 -3.2256119809302203e-01  -5.2677565194976073e-02 -2.0438735348886747e-01 -3.2429861044103703e-01  1.8098624048078127e-01 -1.5911649129402186e-01 -2.4183939203656901e-01  -2.2996628804117920e-02 -3.6797675672480615e-02 -3.3543049336385994e-01  -5.8284530677890058e-02 -9.9880722161219890e-02 -3.4088391651778915e-01  -2.0179169180312394e-02 -2.5023793472110945e-01 -3.0219612886596875e-01  1.4553798596761947e-01 -5.3600460055467009e-02 -2.7967730040935052e-01  1.9324887730962065e-01 4.4544025448272517e-02 -2.6477252660585121e-01  -8.4881467771707131e-02 -3.8450441954106074e-02 -3.4504520610289652e-01  9.1561850305585071e-02 -5.1755221191370181e-02 -2.8887401685179748e-01  1.7833108288933686e-01 -8.7279655003290220e-03 -2.6930772186213042e-01  1.3817607265712126e-03 -2.9810501921301863e-01 -4.6175613745362061e-02  -6.7758218323588262e-02 -2.8467739955975196e-01 -5.9090117643194551e-02  1.4563449376228130e-01 -1.8673357468163373e-01 -4.6336831331513353e-02  1.5799310532493635e-01 -1.3772664301490448e-01 -6.0107211242420799e-02  5.0114369550885822e-02 -2.8264496233325020e-01 -4.7400143345529271e-02  -2.0545662003054574e-01 -1.0841720142908803e-01 -6.5622213478876187e-02  -1.9231724157077712e-01 -1.3183333039227557e-01 -8.1490275063842668e-02  -1.9493414171837681e-01 -1.5551459114132546e-01 -6.2278