<?xml version="1.0"?>
<VTKFile type="UnstructuredGrid"  version="0.1"  >
<UnstructuredGrid>
<Piece  NumberOfPoints="609" NumberOfCells="1820">
<Points>
<DataArray  type="Float64"  NumberOfComponents="3"  format="ascii">1.763329824109346 1.137787172061153 -1.320230289270436e-15  2.769767515411711 0.7880743593895048 -1.332074227861344e-15  1.333992067981244 1.599473382359609 -1.344877442516183e-15  0.7671098853364487 1.928816565184792 -1.750147161980583e-15  0.1277971502853966 2.134975841438123 -1.758286144973901e-15  -0.5426849400579363 2.190807363492802 -1.772849648223719e-15  -1.179277734247594 2.030121854114355 -1.730813834168911e-15  -1.672267088762117 1.596775851350713 -1.330635460827307e-15  -1.971216556816634 1.013186748679616 -1.20636125416227e-15  -2.070785735231232 0.3680756526485793 -8.826115516637981e-16  -1.970389253130278 -0.2657590312420926 -8.652974398973451e-16  -1.649690536119548 -0.8217982436492521 -4.341729175275965e-16  -1.18664763248991 -1.253834747885174 -4.305228052863158e-16  -0.5916368253639708 -1.498010974602138 -4.290080283466965e-16  0.04771096734115247 -1.55763559349201 -4.336577823680814e-16  0.6765062489253546 -1.422569571236914 -4.378758322617665e-16  1.234770638991328 -1.112837994771129 -4.287207242896684e-16  1.670882530524629 -0.6417361962106393 -4.306973155265733e-16  1.95113602923177 -0.0708627616276076 -8.652999390520634e-16  1.983301468366189 0.5469657732341719 -8.756788449050244e-16  2.518293074741458 1.461417836879754 -1.311244851237234e-15  2.030045788508333 1.997516149235587 -1.724298435028353e-15  1.405971445205451 2.351718107313731 -1.755419592340149e-15  0.7313809427676623 2.563608761927004 -1.760915060414933e-15  0.04022941500645179 2.705665647154462 -1.791605195259813e-15  -0.6694510317471872 2.768674464726529 -1.75257558565069e-15  -1.381523612856276 2.639512267003252 -1.730741533192936e-15  -2.02120140236442 2.289590296016788 -1.738648969638726e-15  -2.509295940028639 1.743062797716782 -1.326959623696993e-15  -2.815794919159102 1.080489054766214 -1.297210674808913e-15  -2.933302039070013 0.361493567731822 -8.277072902373352e-16  -2.845176573388172 -0.3538855224422164 -8.632405830808596e-16  -2.564873321769541 -1.020827572637651 -4.084312949247891e-16  -2.134206827257307 -1.589558198186064 -4.372651898822205e-16  -1.564313695683071 -2.021725813260162 2.290280763993246e-17  -0.9131313742072029 -2.29902672694658 4.659216555169462e-17  -0.2166852772282901 -2.411687366916744 1.833646668542621e-17  0.48897904363773 -2.35911419971304 2.354566622441945e-18  1.158571656752654 -2.130422252658004 2.75094465888927e-17  1.743212379691387 -1.731725544987894 -4.095990509165713e-16  2.21563040067349 -1.213200419652162 -4.052450024250026e-16  2.560944520162604 -0.603741690853684 -8.573234072839358e-16  2.758751505123222 0.07374827663153967 -8.322603248012843e-16  -0.2514484378386616 -1.812460992894835 -0.7106906749345789  -0.8059955564831558 -1.687699803640501 -0.589815916308156  -0.6387829934378133 -1.94311312030322 -1.324473020506368  2.172271609072894 0.265808231264951 -0.5428967595040748  2.361812694505812 0.2753300397706185 -1.213603429307602  2.188545569036918 0.857582203303455 -0.9508847582562522  2.302859768600034 0.7193201909313625 -1.845805401197524  -2.210318436625926 -0.6063389329620151 -2.045993772325903  -2.247290904222944 -0.4982416474707811 -1.335860471276754  -2.315069127913004 -0.1116446733229616 -1.859407467356275  -2.304851384769692 -0.002956718018202261 -1.056822163796781  1.949818993298269 -1.361090049315548 -3.843874231263123  1.93940321892818 -1.305156068860372 -4.64821728921084  2.256926588273749 -0.834863460999805 -4.14193115981166  1.728593825109704 0.364642345182277 -7.513832075844456  1.74009887162501 0.6433816117327005 -6.812251040724717  2.13485102840402 0.0828427654624289 -7.058654016734088  -1.726731571211687 -1.189935215105719 -2.995977292356715  -1.35294082873902 -1.434165907594708 -3.469605634106635  -1.291307372272793 -1.616494768621677 -2.955783172817663  0.436665795627552 -2.130267561446618 -2.830640309222996  1.131861752566191 -1.931657627412603 -2.496604879674266  0.5980076358412891 -2.067817503790752 -1.995730583738263  1.179650592224756 -1.85714470145359 -1.89560572078743  -0.7969163837011538 -1.823042687242836 -3.428077489965971  1.687259236723567 -1.320567289226314 -5.514375529580418  1.229945215098291 -1.756606330422394 -4.776493734080082  1.548776705331124 -1.747074430424933 -3.925974899675162  0.821089950608613 -1.810914887373804 -1.296971482697004  0.2801928759429519 1.662223296314491 -3.154004886731353  -0.1247175578945607 1.596852137212673 -3.773896098732038  -0.2992687958485041 1.72243565958016 -3.033994452873372  0.5196810879938966 -2.090180115587939 -3.63936644214328  -0.1540145552032415 -2.050274567183214 -3.461109100960762  0.6199128622225992 1.502383543787865 -3.932357734607802  1.647635376539397 -1.564009043637181 -2.127913124482085  1.688187332085 -1.553852993001073 -3.027271839972698  -0.8334750854191799 1.661790037807185 -2.906856918331571  -0.3812931976722658 1.74853097490867 -2.374034846061846  -0.8950331478439599 1.656519208041528 -2.241567275135462  -2.271734825515656 0.3452912238423714 -2.35040378631498  -2.120952095723452 0.7005659931763228 -2.850598214948735  -2.193012852238807 0.1366787913600571 -3.281832695719898  -1.956868162866206 0.9751792962391316 -2.085121805002153  1.032254136022616 -1.979685731633225 -3.222736363928379  -0.8632342474724248 2.133446264448219 -0.5155602242222914  -2.239683055489277 0.4822938145072264 -1.483386032045081  -1.938204615218867 1.110141370100076 -1.335596448188627  1.644389258420836 1.464095562662712 -1.923477465926276  2.061322894595443 1.162197869761797 -1.65639549492948  1.917320124772737 1.114290838418484 -2.420153307916867  1.806224223568381 -0.09314205834769768 -7.975640921784184  1.742445356627778 -0.6607839130459293 -8.008405821439966  1.378312063518115 -0.4355498949536887 -8.396843432960708  1.854011962495833 1.404338754256323 -1.177408110225982  2.332689368496102 -0.2007877273574158 -1.450009581550162  2.113033057096534 -0.2922259199413785 -0.7449790940629832  2.123928301719848 -0.7304866986063152 -1.393654238394423  -0.7109024239290413 -0.9218433029774232 -5.790589779609801  -0.8109242296266158 -1.254293200188251 -4.972360955231593  -1.187008159720604 -0.6610001401214319 -5.24767474038616  2.149276106504543 0.3154671025259619 -6.376544543154409  0.4389421936529744 2.088805198103857 -0.7738914947920431  2.082344579380673 -0.3842645948599446 -7.508374131780124  0.822283842752079 1.540701799046009 -3.23027380744576  0.6828224203738757 1.67708026537296 -2.577918620163457  -2.23178920570338 0.4399213850055193 -0.6338766587117495  -2.124193639706799 0.9204625147229115 -0.8194964433476265  2.27245073664945 -0.5879496279982783 -2.083122859999489  -0.6540890592667421 -0.6116810970255721 -6.295148930737871  -0.2896317253663712 -1.067076191911172 -6.3990371528048  0.07437886153627429 -0.5806199119543279 -7.490193575717499  -0.1303846318494141 -0.118437114397132 -7.267664696394922  0.2199455833452676 0.001756118746765609 -7.666341679951831  0.09712765526407913 1.770024184187607 -2.353468350079398  1.342253557907082 -1.615544610280388 -1.482411210502983  1.37794253385054 -1.368103842834202 -0.8976611033275105  -2.164836759460248 -0.2807585259797453 -0.5410478980338895  -0.4142952581288661 1.825649248525791 -1.764184054186024  0.2257780757509778 1.918490714632495 -1.580754303154242  -0.1783586745497757 2.035127223477124 -1.174017066607308  -2.03291777498341 -0.8539965733678985 -0.8656692189795312  -1.384108757910746 1.870329649390829 -0.6201765265399233  2.039314128102268 -1.064172422397195 -2.045677621828727  1.810929222798161 -1.214934221449874 -1.4743374445199  -1.799400505294105 -1.254382004038637 -1.131338117475428  -1.61806672063375 -1.212927270761497 -0.5559088356218124  -1.298091939582029 -1.621206061793659 -0.9595829918011387  1.153187079389915 1.666502470117296 -2.060725401783754  1.374865422189318 1.740092018908902 -1.313480587478874  -1.360109103564365 -0.08220931589743205 -5.294428247544088  -0.9680340926550546 -0.4118759283848835 -5.844425053045621  -1.845815564269421 1.425588453823936 -0.6748548098453845  -1.516482946026616 1.545398485425403 -1.330217333590038  -0.6655369990894724 -1.608655619644829 -4.322655380508291  -1.138470593933158 -1.333072775108791 -4.105715454666526  -0.1442696626162894 -1.666166192852219 -4.923460135138534  -1.412679674231069 -0.8248877447476906 -4.452350634196397  1.752255858284696 -0.9110217013706784 -0.7252914247432076  0.8009573552321804 1.907665581380411 -1.44495456443466  0.5352712489807863 1.825596394789976 -1.940158370939743  -0.2763258772219951 2.180884111012588 -0.6057766673632493  1.847212506479973 1.254408850855991 -0.5013711921419112  -1.634056080305424 -0.9551690189293798 -3.760291431875729  0.6106864351516779 -1.78220853349187 -5.021930593534669  0.7320817514760463 -1.968394280979816 -4.348021096384683  0.2002548157498061 -1.948065941496985 -4.28113902280661  -1.889944927886129 -0.2513753336887122 -4.0333246607011  -2.058409262500069 -0.5360706777487372 -3.230952689419168  -2.25353456134967 -0.2544308235928967 -2.584382683427409  -1.466521145087312 1.402291152194279 -2.124444542703668  -1.728621045261418 1.261196414360098 -1.7508921684191  -1.977243189408517 -1.080739348490041 -1.718341110841795  1.550778107631444 0.8812241337685418 -6.309891239961329  1.19251352939014 1.224323698147639 -5.530284451317175  1.851140440700381 0.8885611764227153 -5.50964033065599  2.176452336650422 0.6201283730019194 -4.607707889862962  2.385113904758651 -0.1149584079158195 -4.262371859162462  2.337506332533549 -0.08619465149233178 -5.097157420146733  -0.3550771132407196 -2.079205589466402 -2.774914020861014  -0.9569540689055859 -1.882103903476684 -2.507101437476152  -1.116035100875052 1.643149805358057 -1.722976340690052  0.1118595190985275 -2.045444679493968 -1.507724942289629  0.03143273915313209 -2.131350949218477 -2.282961160438315  -0.8
[...]
<PointData  Vectors="f_875265-0"> 
<DataArray  type="Float64"  Name="f_875265-0"  NumberOfComponents="3" format="ascii">3.2167102457297464e-01 2.0521121945669979e-01 0.0000000000000000e+00  1.8489954580195697e-01 4.6537050570900622e-02 0.0000000000000000e+00  2.7195911946979207e-01 3.9681170516192016e-01 0.0000000000000000e+00  1.8774201230664347e-01 5.4576581981558925e-01 0.0000000000000000e+00  7.4213968786705761e-02 6.1613769189657230e-01 0.0000000000000000e+00  -5.6947575958305748e-02 5.9448616528744191e-01 0.0000000000000000e+00  -1.8745150751620618e-01 5.1354604169296114e-01 0.0000000000000000e+00  -3.0239510611014725e-01 4.1088937215014099e-01 0.0000000000000000e+00  -3.9441083405480676e-01 2.8016668305373948e-01 0.0000000000000000e+00  -4.5015370139469751e-01 1.2185963583359403e-01 0.0000000000000000e+00  -4.7196579313497317e-01 -5.5558112010954383e-02 0.0000000000000000e+00  -4.5063962837898425e-01 -2.3696063510820206e-01 0.0000000000000000e+00  -3.7186492309826308e-01 -4.0464847159570949e-01 0.0000000000000000e+00  -2.5038320137095149e-01 -5.3031876635351083e-01 0.0000000000000000e+00  -9.8117116132418386e-02 -5.9055925678539400e-01 0.0000000000000000e+00  5.8723065974028196e-02 -5.7583486871540568e-01 0.0000000000000000e+00  1.9191463772434081e-01 -4.8843469808022905e-01 0.0000000000000000e+00  2.8448080061491943e-01 -3.5016890068977408e-01 0.0000000000000000e+00  3.2731552389295110e-01 -1.7632354615718140e-01 0.0000000000000000e+00  3.3678568975430107e-01 1.4302018983626144e-02 0.0000000000000000e+00  1.8263840557929048e-01 1.2279721881784249e-01 0.0000000000000000e+00  1.9572074164545322e-01 2.2363389996324276e-01 0.0000000000000000e+00  1.7482463002264920e-01 3.5669410713688393e-01 0.0000000000000000e+00  9.9238788942985712e-02 4.6607975283485320e-01 0.0000000000000000e+00  -9.0185015508148850e-03 5.0333428834519223e-01 0.0000000000000000e+00  -1.1605852592107518e-01 4.5488139173683034e-01 0.0000000000000000e+00  -1.8509716092204095e-01 3.6763863167889393e-01 0.0000000000000000e+00  -2.2309712489634220e-01 2.7985678995197744e-01 0.0000000000000000e+00  -2.4663445199695000e-01 2.0606251180506360e-01 0.0000000000000000e+00  -2.6682920719484104e-01 1.3717919679530477e-01 0.0000000000000000e+00  -2.8398273296989129e-01 7.1077680988022154e-02 0.0000000000000000e+00  -3.0223755178838596e-01 -9.1221556117611242e-03 0.0000000000000000e+00  -3.2120992276073063e-01 -9.7924657420830202e-02 0.0000000000000000e+00  -3.0805276170396900e-01 -1.9980442093200049e-01 0.0000000000000000e+00  -2.7654719637760083e-01 -3.0309240123154763e-01 0.0000000000000000e+00  -2.0713908574662776e-01 -3.8845366167411099e-01 0.0000000000000000e+00  -1.1278965245257502e-01 -4.3630213329718576e-01 0.0000000000000000e+00  -1.2182681478589226e-02 -4.4545424627740887e-01 0.0000000000000000e+00  8.4468387527820127e-02 -4.1290408005121160e-01 0.0000000000000000e+00  1.5880139071757995e-01 -3.4360742785399007e-01 0.0000000000000000e+00  2.0935281880785406e-01 -2.4779370266732056e-01 0.0000000000000000e+00  2.2007197323451994e-01 -1.3637633449970080e-01 0.0000000000000000e+00  2.0311969825768264e-01 -3.4139444985918109e-02 0.0000000000000000e+00  -1.3985450573005639e-01 -5.6936732597312401e-01 -1.3906768391226947e-02  -2.5957628206761868e-01 -5.0850582362812102e-01 -8.8306807774987655e-03  -2.0977176978172901e-01 -5.2661310106671955e-01 -8.1667345946717082e-02  3.3479758912007568e-01 -4.1495525623723273e-02 -9.2799508881628561e-03  3.2854713397140412e-01 -7.4091616928987159e-03 -6.4900105570199748e-02  3.1488881381721218e-01 1.3068844985605715e-01 -5.0133980640779480e-02  3.1789316334585521e-01 1.4260531626174455e-01 -1.3626574619781387e-01  -4.2361252351940426e-01 -1.3133425600475440e-01 -1.7793226929310618e-01  -4.3448317408335235e-01 -9.2293435294461601e-02 -1.0172673436632695e-01  -4.2291621124503032e-01 -5.9644439065057574e-03 -1.5726684295026666e-01  -4.3345275801356264e-01 2.5646335423643786e-02 -7.7540460553925092e-02  3.0755460255837108e-01 -2.7901161685594023e-01 -2.6857149420573084e-01  3.0341260501470430e-01 -2.5874676945936614e-01 -3.3549403048068666e-01  3.5583219864899124e-01 -1.4286937670700595e-01 -2.8149870471213240e-01  1.8297206120184670e-01 1.6697271016679052e-01 -5.4141184861460123e-01  2.0215771504140514e-01 2.4182407745802276e-01 -5.0617462157698134e-01  2.7757111305455856e-01 1.0898150830056989e-01 -4.8862173661211922e-01  -3.8182307022140888e-01 -3.1592278654855210e-01 -2.8712600698409635e-01  -3.3105249058567870e-01 -3.9276654068958555e-01 -3.3726568150044711e-01  -3.2173420254451091e-01 -4.2569406946941268e-01 -2.7856627637860865e-01  4.2912980885051882e-03 -5.3662255004436821e-01 -2.2505231864832076e-01  1.4472841695806687e-01 -4.8474224299175667e-01 -1.8038803410398133e-01  3.4311287862121259e-02 -5.4334307223929967e-01 -1.3547015960728537e-01  1.4949994942152112e-01 -4.8855806470120100e-01 -1.1873547550416580e-01  -2.4045812234966843e-01 -4.8746766838974565e-01 -3.2162799985946061e-01  2.7502819725741845e-01 -2.8745669085641851e-01 -4.0092732480981641e-01  1.7717484040248604e-01 -3.9982779166920640e-01 -3.7529868046840692e-01  2.2741093172500587e-01 -3.7461725579984162e-01 -2.9065624482260677e-01  9.0677921806942549e-02 -5.4363397534944025e-01 -5.5864318306438988e-02  2.3319883138634260e-02 5.9972731718501615e-01 -2.9832728882032811e-01  -6.0534727642649264e-02 5.5436620405363479e-01 -3.5312281892001673e-01  -8.5171740279236408e-02 5.8051918077115139e-01 -2.8695191353596916e-01  2.1974817837275562e-02 -5.0940639374087604e-01 -2.9897546883992560e-01  -1.1593297930413016e-01 -5.2937003796474191e-01 -3.0432807308724358e-01  7.1130375761475503e-02 5.5680299826812085e-01 -3.5029521331558483e-01  2.4525759873252787e-01 -4.0528921713206167e-01 -1.3748275773672580e-01  2.6519141236386412e-01 -3.7108642179009915e-01 -2.1264107967877285e-01  -1.7917953252725485e-01 5.1844919152376767e-01 -2.6917812314178902e-01  -1.0314073235454453e-01 6.0064899905871572e-01 -2.3363419725634221e-01  -1.9595433899377082e-01 5.4019775879151677e-01 -2.1619196717075698e-01  -3.9304684569081144e-01 9.0319343405427174e-02 -2.0200502235228016e-01  -3.5767344422464820e-01 1.5930421500244099e-01 -2.4548071736069146e-01  -3.7336405908884107e-01 1.6686351859857142e-03 -2.9375478080877504e-01  -3.5915341770995945e-01 2.7027497276448431e-01 -1.8129878911647296e-01  1.3014846140122985e-01 -4.7788213910945798e-01 -2.4402052916007716e-01  -1.4558553901409846e-01 5.5015293804296872e-01 -5.9596704698241083e-02  -4.0881143579493656e-01 1.4226680293251601e-01 -1.2601675139480567e-01  -3.6133969876965033e-01 2.9868077592743186e-01 -1.2568761662007566e-01  2.4623092928424356e-01 3.9976837322616993e-01 -1.7576638402309888e-01  2.8945017902701048e-01 2.5401212594298972e-01 -1.3059388121096938e-01  2.8701882769981313e-01 3.1558353235557801e-01 -2.0500171291447547e-01  1.9113209749008306e-01 7.7632563573340502e-02 -5.3978328122622465e-01  2.2502228367440147e-01 -3.6844806093049270e-02 -5.3155155068578330e-01  1.3354286117361325e-01 -1.2806261708449619e-02 -5.3204343504837559e-01  2.7560754887186156e-01 3.0592214923818767e-01 -8.7765477718543719e-02  3.4195786089728802e-01 -1.1329468758696130e-01 -7.8612567629075120e-02  3.3109734113875033e-01 -1.8255446612733958e-01 -1.4819137631502562e-02  3.2596700331808537e-01 -2.4860216216660433e-01 -6.5614918996937582e-02  -1.9461632465293457e-01 -2.8230270323734791e-01 -5.0682163919818679e-01  -2.3473892819012604e-01 -3.7897960698648525e-01 -4.6099878807392525e-01  -2.6817852860450303e-01 -2.2512095498670104e-01 -4.7731665412241836e-01  2.9104026149257040e-01 1.5510005995514373e-01 -4.4938059992383128e-01  8.8994855569560785e-02 5.9327252580866352e-01 -8.0023537009963577e-02  2.7513978606148304e-01 1.6920837658669495e-02 -5.0553798749818413e-01  1.2239633675506573e-01 5.6455319864991571e-01 -2.9634288546165316e-01  9.6239352982225357e-02 5.8910153522789643e-01 -2.5375294665207593e-01  -4.2629152704729506e-01 1.2119127703508445e-01 -4.0815213263159768e-02  -3.8807673749132898e-01 2.3094526170536228e-01 -6.8981290337140039e-02  3.4944892391044929e-01 -1.7247946432298711e-01 -1.3350759474739349e-01  -1.7476154355739792e-01 -1.8629257009931982e-01 -5.2895857707544225e-01  -1.0638943957047033e-01 -2.8917915623332824e-01 -5.2581127172830988e-01  -5.1450709669745735e-02 -1.4502847850972697e-01 -5.7881278849431494e-01  -1.1727553191047815e-01 -4.9579367207723782e-02 -5.7153174372353410e-01  -6.7543580732133346e-02 -1.6713671575891428e-02 -5.8112440573482960e-01  -1.2787117299331999e-02 6.2187670673589102e-01 -2.3681043372923999e-01  1.9264666509510447e-01 -4.7088032894804871e-01 -7.1619209374312293e-02  2.1087724060282309e-01 -4.6573174951257029e-01 -1.8678298660176128e-02  -4.5235245001184288e-01 -5.2664484153332435e-02 -2.0319807491736286e-02  -1.0471872841966282e-01 6.0897422712211036e-01 -1.9274045781176030e-01  2.0936869748090108e-02 6.2190065411505868e-01 -1.7461625189300264e-01  -4.1795037464762076e-02 6.1590623360493812e-01 -1.3786820860505553e-01  -4.3020476301886384e-01 -1.8910569760128829e-01 -4.9068200075352626e-02  -2.4854066993092622e-01 4.6344865098690802e-01 -6.8114537488770319e-02  3.1951815846791093e-01 -2.9050140151177944e-01 -1.2667711351614336e-01  2.7791350028239120e-01 -3.6635283511437744e-01 -7.0224325424081233e-02  -3.9985476363582567e-01 -2.9435037719246671e-01 -7.4484773606046370e-02  -4.0198569582451954e-01 -3.2181995946592640e-01 -1.1820818103704788e-02  -3.3213572087713550e-01 -4.1898793865969369e-01 -5.0957997586317375e-02  1.7606421101044550e-01 5.1723839557026807e-01 -2.0274432296753811e-01  2.1537573760812365e-01 4.5193324887821701e-01 -1.2058415573125379e-01  -2.6878129079629709e-01 -7.6730743502637297e-02 -4.6676674481414193e-01  -2.2342519926423460e-01 -1.5187665672734346e-01 -5.0956448013372457e-01  -3.3424175720225785e-01 3.4763523675089819e-01 -6.4931398112088617e-02  -2.9152624598129917e-01 4.2677848589883172e-01 -1.3924343881445111e-01  -2.2113703250975056e-01 -4.5986797678111851e-01 -4.0749326813235631e-01  -3.0424553767620693e-01 -3.9436910314836876e-01 -3.9987993266464833e-01  -1.1015931190878558e-01 -4.6707960309340357e-01 -4.4003420251290820e-01  -3.2980841969028296e-01 -2.7407421611139704e-01 -4.2641200826375752e-01  2.8737264966143133e-01 -3.5477289543939655e-01 -9.0290109816304840e-03  1.2571687958723302e-01 5.6482792716882146e-01 -1.5029640026046032e-01  7.2323180428325071e-02 6.0498020920510576e-01 -2.0405692111464352e-01  -3.4619972945826846e-02 6.0508537887171332e-01 -7.0300491215561478e-02  3.0130853391404355e-01 2.4705462086239530e-01 -1.7251303000326491e-02  -3.6710745465010464e-01 -2.8655543884362200e-01 -3.6896741619596402e-01  5.0304623573711432e-02 -4.5819255730983660e-01 -4.1811360018356802e-01  6.6966492304483843e-02 -4.7045316004928722e-01 -3.5943583336024992e-01  -4.4876309699552232e-02 -5.0328543662888725e-01 -3.7398247743481805e-01  -3.5396423253051318e-01 -1.1317987920569966e-01 -3.7774983299859832e-01  -3.9639777698873202e-01 -1.6031551495970137e-01 -3.0421233784106672e-01  -4.1125993951112361e-01 -6.3896313704855767e-02 -2.3032894938611220e-01  -2.8956442966421603e-01 4.2284784252958724e-01 -1.9489010564173220e-01  -3.3206615858139976e-01 3.6071432875953874e-01 -1.6462950273177071e-01  -4.1152509031777779e-01 -2.4596580538241561e-01 -1.4351484780503179e-01  1.7683191062620665e-01 3.1162771219280666e-01 -4.8941632874994401e-01  1.2675022280890202e-01 4.0637631420822468e-01 -4.5744696474333524e-01  2.4950691997031421e-01 2.9814888759345270e-01 -4.1842531400807775e-01  3.1629417027369933e-01 2.1815302626112093e-01 -3.3260146995838741e-01  3.6307983294301055e-01 3.2319147144402781e-02 -2.8971013792219907e-01  3.5824976643773571e-01 4.6945008952944803e-02 -3.5146460015491104e-01  -1.5363009643222714e-01 -5.3629494154238699e-01 -2.3877226703207505e-01  -2.6494488136213901e-01 -4.8753827994761273e-01 -2.2179474211764347e-01  -2.3339112388838013e-01 5.1330679304726667e-01 -1.7949429633184061e-01  -6.2398663428548946e-02 -5.6377972769965157e-01 -8.8457250729373216e-02  -7.8892492958375776e-02 -5.5438648418706804e-01 -1.7656940593700329e-01  -1.6711012865532160e-01 5.5671819306507242e-01 -1.3100589374504423e-01  -1.7950157510693121e-01 -5.3682930440745957e-01 -1.4650544018346842e-01  3.5412131623964094e-01 -3.8981212839219841e-02 -1.5290687476863030e-01  3.4004608611321441e-01 7.6153643792329737e-02 -1.6700188135222968e-01  3.3453936814078650e-01 1.5525078036086430e-02 -1.2003028891903002e-01  2.0978739064449892e-01 4.0119287049090602e-01 -3.7975232029665901e-01  3.6510151375064775e-01 -8.5417314953767282e-02 -1.8487670491419195e-01  3.5110015907395581e-01 -2.1543973942224925e-01 -1.9205539723856874e-01  -4.1398606906469293e-01 -2.2056428638396339e-01 -2.2949872042827124e-01  -2.9868984668762683e-01 -4.5681170133292948e-01 -1.3645376234505827e-01  1.9096439199208165e-01 5.0290739787046190e-01 -5.8605051059339539e-02  2.5645001442330201e-01 3.8051002184650273e-01 -4.6815242704327360e-02  -3.6603316439340383e-01 -3.6377245103561617e-01 -1.2474451511327117e-01  -3.6255535788556237e-01 -3.7111898511039149e-01 -2.0472074074782198e-01  3.4862394758865428e-01 -2.1432593342774708e-01 -2.3105124996888698e-01  -1.3369246392692999e-01 -1.4637431262103959e-01 -5.5169540588736032e-01  -1.5195299162775580e-01 4.4172354956039400e-01 -4.0871893755113475e-01  -1.6278532725060185e-01 4.8581656021470121e-01 -3.3901722242614929e-01  -4.0901403241720737e-02 5.1016350252136622e-01 -4.0982954411357447e-01  7.1680792199147386e-02 4.8749169158947592e-01 -4.1576678198364719e-01  3.7571432456574627e-01 -4.2807623027800314e-02 -2.3336431739701874e-01  -2.5510868485908850e-01 4.3679743269774363e-01 -2.4493584845903049e-01  -2.5812898419166125e-01 3.6655465408184595e-01 -3.0635828858728181e-01  -2.1852675408052466e-01 3.7907810335846576e-01 -3.8011874065268486e-01  -2.4424026113731404e-01 2.5769442949438059e-01 -4.2091719306256764e-01  3.4464921186180336e-01 1.4316031364116488e-01 -2.6205227529147684e-01  3.5425846680680023e-01 8.0031160412208757e-02 -2.1057068229799436e-01  -3.1382443223103956e-01 3.0966395626526128e-01 -2.4495014804394943e-01  -3.0116921049127606e-02 4.6014836774335405e-01 -4.5462064089304360e-01  -1.0566140273553450e-01 3.7044488820776378e-01 -4.9398699231212906e-01  -1.0982419724604635e-01 4.3440443893820296e-01 -4.4885293074489596e-01  3.2705079504378959e-01 1.8572427556842247e-01 -1.9940561915227284e-01  -3.0773472872627605e-01 -1.0969661158019482e-01 -4.2987795655474120e-01  2.5989274683506502e-01 3.7344840654847211e-01 -3.1916383528779813e-01  2.0748561373464522e-01 4.7098898332056094e-01 -3.0373150825695022e-01  3.0386053712999994e-01 2.9090130168008044e-01 -2.5512364208076566e-01  7.1873527210541705e-04 -5.8032212653477200e-01 -1.1286769691944221e-02  1.3592647119018558e-01 -5.3346355901940956e-01 -3.1241178086629561e-03  -2.8373274748731636e-01 2.2821463429437511e-01 -3.7200202376768970e-01  -5.5230779733345487e-03 4.1241721519660962e-01 -4.9294595585533107e-01  -3.1729835993657490e-01 1.6404799605671394e-01 -3.1174623158863718e-01  2.1759474962520214e-02 3.5525348274863860e-01 -5.2527086522944411e-01  -1.0085971807841121e-01 2.8492603327201305e-01 -5.3675758517987060e-01  -3.0227170430485201e-01 4.1541823549247500e-02 -4.0813616045911527e-01  -1.9980937471282278e-01 -4.3365858242414936e-02 -5.2853945020902182e-01  -2.1982759528122647e-01 9.3347014230237932e-02 -5.0780493416210859e-01  -1.7618676529947799e-01 1.2876245830938959e-01 -5.3906860007974755e-01  -2.3274731794154371e-01 -2.5854507065148923e-02 -4.9566796763380189e-01  3.4882947482401178e-01 3.1775561534924154e-02 -4.0024530976790929e-01  3.1463789761617034e-01 1.7127411604917264e-01 -4.0060791903002380e-01  -1.5251441367783136e-01 -5.0279628364163043e-01 -3.7428511529623426e-01  -1.7441256543208172e-01 2.4277209270117256e-01 -5.1264856712559292e-01  -2.2269309938905338e-01 1.9604757425125086e-01 -4.7325714617334175e-01  -1.7722200906864527e-01 3.3509977312256184e-01 -4.6435855074730326e-01  -2.5256207556927462e-01 7.0476061754315547e-02 -4.6320642332212514e-01  3.6260078979789057e-01 -4.1910750469804754e-02 -3.7207703825077287e-01  3.5618012044964387e-01 -1.0775479854499401e-01 -3.4803953315218211e-01  3.4299572953544205e-01 -1.2582672049051810e-01 -4.0367495569389306e-01  2.0502749643527790e-01 4.8403708124348332e-01 -2.4758344898312970e-01  1.2988832770201666e-01 -4.4713707438611444e-01 -3.1359378985957859e-01  3.0240537092399244e-01 -3.2569619296530455e-01 -1.7153262213021800e-01  3.2950177096432887e-01 -1.9563891773414316e-01 -3.7513234161997810e-01  3.6416114584874670e-01 -4.3628118332954387e-02 -3.1907622019487641e-01  1.5638887460706255e-01 4.8875107001975748e-01 -3.5784400199425753e-01  2.6100526722421097e-01 4.0060639769538703e-01 -2.5585769485718862e-01  7.4123004559268860e-02 -4.2409303571705681e-01 -4.5839333149068762e-01  1.6714697589096042e-01 -3.9348674959136043e-01 -4.2896582278087336e-01  1.5666153966748708e-01 -3.5229087173265344e-01 -4.7584918088595796e-01  2.3056331754802784e-01 -3.3294774915951114e-01 -4.3335850683815197e-01  -3.2942209548308399e-01 3.9164511338672485e-02 -3.5289565927241473e-01  2.8189775569785036e-01 -2.5188192919025421e-01 -4.4032073859576504e-01  2.5685929405607283e-01 -1.3790236171891665e-01 -5.2087624577619196e-01  1.6358273844599583e-01 -1.4671471743750006e-01 -5.5984270548149828e-01  -1.2233221974865868e-01 1.0916190988474603e-01 -5.6663385362645768e-01  -3.2594276479909631e-02 1.2367894436401465e-01 -5.8098781545173273e-01  -2.8655226829347780e-02 -4.4457849846178626e-01 -4.6403217707609851e-01  3.1484077958276635e-01 -1.3537425596186062e-01 -4.6333043968914145e-01  3.3279645435194954e-01 -8.9221332178203317e-03 -4.4743552785039514e-01  -4.0733634380788961e-02 2.5210157808745121e-01 -5.5845382820035916e-01  8.6998936377530700e-02 2.6626016705551886e-01 -5.5273375881566877e-01  2.6328984190909982e-01 2.4490761763330585e-01 -4.4261045550325051e-01  5.6923697215409512e-02 -2.1894156246133514e-01 -5.6194469635776378e-01  1.7509977683846745e-01 -2.3086091134531497e-01 -5.4071501918460863e-01  2.3953903639774765e-01 -2.5143870760607862e-01 -4.9435865390285022e-01  -1.3014487758868062e-01 -3.9203006298774723e-01 -4.8834734136504437e-01  -6.8955774268408248e-03 -3.8875457856826995e-01 -4.9282797468121803e-01  -1.6333229496615542e-01 -1.0131574414330114e-03 -5.5414300223717372e-01  3.0898783700886323e-01 2.5811286365183822e-01 -2.9110861719897901e-01  3.0398672655444565e-02 -3.2327312275679421e-01 -5.2185970457357611e-01  1.2898065054631644e-01 -2.9790358067958839e-01 -5.2355283192246083e-01  4.6976674864529458e-02 -1.0207766723136884e-01 -5.7599130533165588e-01  -4.9962166887378062e-02 -2.4292371511692956e-01 -5.5027151506702132e-01  5.4007184678256572e-03 -3.9937512438247775e-03 -5.7781506154580908e-01  7.1483039975298091e-02 8.7490142732535900e-02 -5.8121991705886067e-01  7.6740256900619377e-02 1.8892780071782414e-01 -5.7784497425861081e-01  -3.3031828237405261e-02 4.5381197833429548e-01 -7.3257644612485032e-02  -1.1583136500458825e-01 4.0539142450646248e-01 -7.3340477325333345e-02  4.5913292585365147e-02 -3.8275582254492418e-01 -9.2650701694576162e-02  -1.2638310806583524e-02 -4.0952483398382428e-01 -8.1180340283280653e-02  1.4795702598806995e-01 9.2629717070421516e-02 -4.7094299408682128e-01  1.2342350606471182e-01 7.1209445635767685e-02 -5.0197992980271655e-01  1.2412197906887619e-01 1.0330224596366278e-01 -4.9865526527347664e-01  1.4392951889866168e-01 5.6822106165085304e-02 -4.8846683827660586e-01  -2.1059191263604121e-01 1.4608706488313536e-01 -1.5317098441915683e-01  -2.0627108560749138e-01 2.0254785605430647e-01 -1.3160583188394365e-01  -2.0508540647052725e-01 1.7945956221270920e-01 -1.6775459021893055e-01  -2.2180669863024136e-01 1.5070322492815125e-01 -1.0556362699233397e-01  -1.9919364019310598e-01 2.2839559198900455e-01 -1.6185466593964223e-01  -1.8541335106367901e-01 2.8777767553431560e-01 -1.1694158904187932e-01  1.7106837492115912e-01 6.2039616578026167e-02 -6.