<?xml version="1.0"?>
<VTKFile type="UnstructuredGrid"  version="0.1"  >
<UnstructuredGrid>
<Piece  NumberOfPoints="559" NumberOfCells="1661">
<Points>
<DataArray  type="Float64"  NumberOfComponents="3"  format="ascii">0.7765855101871073 2.177584851570205 -1.760641106587254e-15  2.022344075558883 -2.332518096282463 4.272246064313878e-18  0.08183511504912663 2.236101992904417 -1.77399057618974e-15  -0.5719292926637064 1.984530434212275 -1.747394835777762e-15  -1.072285916447097 1.480710717762155 -1.305408519819805e-15  -1.39190572324758 0.8447572924981381 -1.306783702828363e-15  -1.543145027786854 0.1498828330365378 -8.815134028897393e-16  -1.54819958115677 -0.5445234990904343 -8.78793301232606e-16  -1.285277994216995 -1.167658916138266 -4.433335728925936e-16  -0.80303082589206 -1.646646895955074 -4.411836429156164e-16  -0.1679290190454562 -1.900140113029054 -4.363667450378395e-16  0.5193753157315923 -1.953267896381443 2.18155335978579e-17  1.189264170849558 -1.776689395139083 -4.249544647920053e-16  1.732421015415916 -1.344789111530942 -4.433712333915967e-16  2.07714685967569 -0.736302720838219 -4.472835876626459e-16  2.188771543113594 -0.0375465229834909 -8.707161590511555e-16  2.117843016431499 0.6693709132683656 -1.328369282708364e-15  1.846609169176177 1.314579832273003 -1.320848836626796e-15  1.39203574607875 1.844234651561076 -1.766436858943996e-15  2.534448512202886 -1.782602947728985 -4.474866351577625e-16  2.895027511490788 -1.124532700022942 -4.470392394757032e-16  3.104065663313061 -0.4092072068849728 -8.755809313256328e-16  3.141499815750842 0.3419371729199626 -8.757402322558337e-16  2.960146220433773 1.077235410365172 -1.311130235281931e-15  2.55393714291332 1.71374855037211 -1.314728873429389e-15  2.010611629333017 2.223958200904849 -1.725704392783587e-15  1.384736644135715 2.613686868636214 -1.74054485244969e-15  0.7058542857864261 2.905883429566596 -1.739694472446417e-15  -0.02847887877246285 3.0591297121473 -1.749282450481609e-15  -0.7793780136013215 2.987303752280233 -1.791087066466206e-15  -1.474974017860697 2.682785591137887 -1.762528886737771e-15  -2.058484728090296 2.18857966368372 -1.766546043035934e-15  -2.485062740043586 1.563100231067689 -1.330236362145488e-15  -2.737822715336969 0.8484384368684952 -1.296110172912237e-15  -2.805328098540184 0.09571167670800748 -8.469698120482104e-16  -2.704585283406141 -0.6469156623098418 -9.042144792438653e-16  -2.438377858789122 -1.348067383864247 -4.106767601881314e-16  -2.023240732449825 -1.969193896938015 -4.320974866789568e-16  -1.474452766059932 -2.475316700673208 4.501814110488387e-17  -0.8093700967038218 -2.821654577647286 -7.611920947235512e-18  -0.08203619122522124 -2.979557379421555 8.23457496088386e-18  0.667587615819243 -2.94646773840893 1.552452153604321e-17  1.381438681635701 -2.72345290537968 4.323943710761252e-17  2.217390301759019 0.1424094227750489 -1.135825065930932  2.216166079628591 0.5115372905714587 -0.7110626426543456  2.218488225630997 -0.2434396863997189 -0.6634447505134945  1.723462317525605 1.605786088511633 -0.5717256286794163  1.463268701296248 1.712211777434477 -1.143355424229362  1.225591752106221 1.986168657045876 -0.6173231325506543  1.984665365411117 1.186990767946217 -1.042505994527581  2.038498654053093 0.7012525895491767 -1.602438284007674  0.7205492709926755 1.991595284606747 -1.284234165647876  1.966872995427831 -1.018687111658071 -0.6559434656787858  1.553531513509385 -1.547206239764127 -0.5915647063720335  1.555826713079567 -1.483460499460004 -1.192214889700941  1.438579398790992 -0.9110737053392439 -2.412270438250984  1.052376763047401 -1.165967983765867 -3.140595274719117  1.282222833776368 -0.5426256728634437 -2.826528562598993  -0.1796258940879197 1.67364586096977 -4.045373269326413  -0.07039469963364946 1.612418072339443 -4.676573771816192  -0.548014534842354 1.612296481992333 -4.474861662543418  1.246706457624444 1.605186676227721 -1.74528810873021  1.746891974583608 1.247714822631621 -1.584051989884837  0.858413935983281 1.433569960753276 -2.555797781397135  0.5703467733364345 1.707512830921676 -2.032276860837043  0.18312583520741 1.631204116117226 -2.669395190787879  -1.852856521722536 -0.9316796751888144 -1.987346220801804  -1.74812520631212 -1.115252948178061 -1.427956279274857  -1.927166201178429 -0.5454291303047596 -1.353758732714842  -0.5231123018214487 1.5437353460011 -5.180672704050211  1.040277647115884 -0.6942084259789848 -3.525899981180299  0.9263935782995729 -1.138839262945308 -4.072980635512863  0.9698400005877132 -1.912719370823637 -0.8661718276278267  -1.703477989204667 0.86437869869885 -4.314031023497897  -1.973642085749211 0.3770708685152026 -4.027910891915704  -1.860003736800595 0.9745520157366561 -3.493941797002504  -1.651148148520724 -1.046404096481261 -0.68499709932821  -1.474000606631428 -1.478956703049829 -1.268867224431415  -0.1548792577111314 2.162262633621379 -0.4855370217663503  -0.06464429960720072 2.027217204072325 -1.044630011492661  -0.678621414263248 1.859782115435304 -0.6147494699614545  -1.750414071983735 0.02166063397874992 -4.757692597796056  0.5526294340082457 2.198593911277837 -0.6518852451060596  2.117687227863267 -0.4770356645595988 -1.189076579727855  -1.958756545389384 0.5356672999396882 -2.18456599833787  -1.617273422494352 1.020105227854196 -2.132166149732485  -1.961792389748952 0.7374203937856122 -2.771818575795852  1.15707385675905 -1.803800246381946 -1.690573276093554  -1.959244339957617 0.1171385824107592 -1.628719419871527  -2.050931726060676 -0.4147521430336649 -2.210783026418567  -1.629737566620072 1.214459368779203 -2.957140336276237  -1.493708556763905 -1.510355677213399 -2.675730946882981  -1.040047719081539 -1.882929053916683 -2.993565869959892  -1.017970269828844 -1.856207197182548 -2.356003549369006  -0.6172401220384394 1.688256971973301 -1.415166663629263  -1.840424931526764 -0.02834989266096861 -0.8964027736569148  -1.710068409291331 0.5051776101716322 -0.9720729083099486  -1.7526347319942 0.6457949132004558 -1.57108564102305  1.845279435755874 -0.6301231403749434 -1.839625962099615  1.881681220771754 -0.9643293247033763 -1.403153425288914  1.601564072365509 -1.246896639855351 -1.877026951993398  -0.0024308237870268 1.778572721229556 -1.791436070937117  -1.5185656859034 -1.42506393329856 -2.013227713201941  -0.6197654905135153 1.616166566548115 -2.37352554169156  1.187149049217445 -1.494589728572552 -2.481955894874801  0.6421453928657054 -2.039466804806402 -2.354260023739178  -1.460793123509705 1.011059213084014 -1.279913043267507  -1.370372344894847 -1.262419702620967 -4.185492122019159  -0.7430881835459885 -1.60915666516484 -4.529393770458784  -0.9398098875036964 -1.834067106185449 -3.693762295299178  0.2637472280095376 -2.094064407753216 -0.7461559560287819  -0.580896953063859 -1.991797463748161 -0.7277058397986298  -0.2443563118504709 -2.112896767546415 -1.383764955924538  2.04095145510373 1.066086720978692 -0.4413591654164903  -1.886020423488547 -0.9466783153128265 -2.730763066755899  2.035691474211223 -0.01363630410283713 -1.695618183514818  1.81560262973188 0.3816474894292687 -2.161395777652133  1.6571657460445 -0.2504652748901017 -2.310559539869002  1.415943346863419 0.07082401209483574 -2.935658131017694  1.334128402753016 0.2682482696376956 -3.960854837067519  1.386518229617457 0.595638105988078 -2.986125119802434  1.515440408744949 1.026602188877173 -2.254224139544831  -1.132755898536991 1.418876146561222 -0.7834703089902371  -1.458457904787641 0.9246577324011241 -0.5165908740428958  -1.192330030297529 -1.612869808624809 -0.6578313554287649  -1.769159381267348 -0.4155138848956438 -0.5782194728735288  -0.5207723248284627 -2.044081853175531 -2.14544434509703  -0.4066829668297304 -2.104256424058548 -2.972451256726357  -1.018147578232762 -1.855310261611397 -1.531353802361469  -1.488146990801553 -1.487972128417411 -3.372856044634724  1.176703547945521 0.851306705267584 -3.725611756079297  1.147554865328296 -0.2393031368471289 -3.488045502302817  1.138959874881673 -0.4183061221514468 -4.19721154056536  1.121286029670735 -0.8084629576558076 -4.864880104431657  1.374573010324158 -0.1192039368570873 -4.763035909487839  0.3098104024091506 -2.043107845099721 -3.275297678163869  0.1714777491997383 -2.125387897983124 -2.772957427801803  -0.2726894465424211 1.70511099251428 -3.24116199802733  0.2904547563523769 1.57575444729514 -3.579739279267335  -2.099611986427772 -0.336189008718533 -3.077611103006453  -2.118218709241004 0.1350689945557527 -2.538943143145901  -1.127133000500703 1.357231697264497 -1.7126686199848  0.02543409825449894 -2.127877546451795 -2.138048202376111  0.4340704321433397 -2.106633621294832 -1.427097685994591  -2.120984816836865 0.2708307008424205 -3.350200369621876  1.076070441490611 1.084975903006529 -3.066947768887223  -1.246295468228518 1.371465182000268 -2.388453563601288  -1.989675460887038 -0.2268721230463801 -3.882764676940861  -0.8533798298878134 1.640427163770959 -3.761780821067014  -1.807166752868212 -0.9094453490526051 -3.662717627911863  0.846885633196323 1.25155778987284 -3.909145880374132  0.6514583817481987 1.407008734419885 -3.189035166245692  -1.036431179396558 1.597424230074215 -3.082387141296339  0.7295991187302886 -1.613507736059396 -3.601344176124293  0.8125152276443298 -1.726983136275513 -3.017654639591309  -1.458828876729155 1.344091639652119 -3.782681851938615  -1.118581265561542 1.365585942830543 -4.519149601083059  -1.503239668370504 0.8176284568311771 -5.086400631236204  0.7456357391594302 -1.236324547541574 -5.526932147483876  0.6566845831918179 -1.413858233030431 -4.865454901751241  0.4036674101563213 -1.754467713109646 -4.108010863947333  1.218151291027684 0.8809932283613332 -4.47497039927504  -0.1329236592893364 -0.3239239507966941 -8.201881988451712  -0.1742988300938314 0.3087810571132341 -8.117414298268249  0.3996787295978873 0.1743232521281454 -8.540452060733191  -1.5141693593701 0.3043535045644465 -5.562520943026215  -1.388484822252997 -0.3094441268948532 -5.625121131401912  0.8395218895041
[...]
<PointData  Vectors="f_2625234-0"> 
<DataArray  type="Float64"  Name="f_2625234-0"  NumberOfComponents="3" format="ascii">2.0405554313851459e-01 3.5537156219046750e-01 0.0000000000000000e+00  1.6326712275303321e-01 -2.4619119107215409e-01 0.0000000000000000e+00  5.9133698703524550e-02 3.9571419401232577e-01 0.0000000000000000e+00  -1.0048774332575748e-01 4.0245761879875064e-01 0.0000000000000000e+00  -2.6039013767297631e-01 3.6811581030161339e-01 0.0000000000000000e+00  -3.8459882742772100e-01 2.7196654329133368e-01 0.0000000000000000e+00  -4.5552306424457140e-01 1.4034102412530108e-01 0.0000000000000000e+00  -4.5287209432898995e-01 -1.9131366879470355e-02 0.0000000000000000e+00  -3.9678265193441559e-01 -1.8266739519316627e-01 0.0000000000000000e+00  -2.9243904760692874e-01 -3.2292731893053045e-01 0.0000000000000000e+00  -1.4820192146496358e-01 -4.2087891086052509e-01 0.0000000000000000e+00  1.2136622179214306e-02 -4.5395976531579674e-01 0.0000000000000000e+00  1.7119593605802297e-01 -4.3029432241709725e-01 0.0000000000000000e+00  3.1764918276833970e-01 -3.6209971798931806e-01 0.0000000000000000e+00  4.2942392610213836e-01 -2.5577179941625527e-01 0.0000000000000000e+00  4.9301056243663538e-01 -1.2126234425681841e-01 0.0000000000000000e+00  4.9015356716881892e-01 2.1986442044329636e-02 0.0000000000000000e+00  4.3223271342304759e-01 1.6072636454436159e-01 0.0000000000000000e+00  3.3215650773180666e-01 2.7742625144704763e-01 0.0000000000000000e+00  2.2800132152416000e-01 -2.1305971340774585e-01 0.0000000000000000e+00  2.8224895798331762e-01 -1.6069741213079561e-01 0.0000000000000000e+00  3.1323645582945792e-01 -8.7549426119313017e-02 0.0000000000000000e+00  3.1676901081700387e-01 -1.7161329382164473e-02 0.0000000000000000e+00  3.0048195116974302e-01 4.3636928805357487e-02 0.0000000000000000e+00  2.7901520570985056e-01 1.0725611064590723e-01 0.0000000000000000e+00  2.3857895320614145e-01 1.7253674413753181e-01 0.0000000000000000e+00  1.7292705104423323e-01 2.2575497559257893e-01 0.0000000000000000e+00  8.8910444064075944e-02 2.4438628215662836e-01 0.0000000000000000e+00  1.6619180366790647e-02 2.3750986915627936e-01 0.0000000000000000e+00  -4.4523246138276344e-02 2.2435723537054933e-01 0.0000000000000000e+00  -9.6796548470203053e-02 2.0913011830421346e-01 0.0000000000000000e+00  -1.4473740464106194e-01 1.8996422063140081e-01 0.0000000000000000e+00  -1.9240523537333315e-01 1.5244289507049583e-01 0.0000000000000000e+00  -2.3174648046345125e-01 1.0570074342150297e-01 0.0000000000000000e+00  -2.6012162853827347e-01 4.7311570291304818e-02 0.0000000000000000e+00  -2.5985132714957587e-01 -2.0361273406713717e-02 0.0000000000000000e+00  -2.4503032545815159e-01 -8.4446884603378805e-02 0.0000000000000000e+00  -2.0904092471015678e-01 -1.4414039752979935e-01 0.0000000000000000e+00  -1.6073764109585298e-01 -1.9869496428926745e-01 0.0000000000000000e+00  -1.0458022601577036e-01 -2.3087548488976029e-01 0.0000000000000000e+00  -3.5302863004559801e-02 -2.5928076191000621e-01 0.0000000000000000e+00  2.5909278486393371e-02 -2.6897133787950123e-01 0.0000000000000000e+00  9.5551091290235382e-02 -2.6568008184765363e-01 0.0000000000000000e+00  4.6857064501311241e-01 -3.8617664475832855e-02 -1.1323294028706012e-01  4.7149985652025428e-01 2.0191986090111309e-02 -6.4507134723211096e-02  4.7572572230119570e-01 -1.2735601320190779e-01 -6.1140303309949746e-02  3.5629464033100483e-01 2.2724661212217084e-01 -5.1864237861645339e-02  2.8557102121643835e-01 2.6903114625273145e-01 -1.1705262415976307e-01  2.5370259858105865e-01 3.1161860084201454e-01 -6.2108049340561904e-02  3.9082089656558844e-01 1.5401361242081088e-01 -1.0255647961951227e-01  4.1584836586799573e-01 8.0602601890806327e-02 -1.6407068384770743e-01  1.3563040755499414e-01 3.5343770532342700e-01 -1.3273275817306465e-01  4.0422413400272644e-01 -2.7185393341786596e-01 -6.0345107032896680e-02  2.9313356136744118e-01 -3.6803826675505130e-01 -5.0330483385418519e-02  3.2501242664512142e-01 -3.3699125227235716e-01 -1.0980915242676229e-01  4.4574115334835013e-01 -2.0451012829360254e-01 -2.5616944699887073e-01  4.0204609837889260e-01 -2.2930256551485967e-01 -2.8310337260628782e-01  4.7790415543474180e-01 -1.3969470989134067e-01 -2.8027840790271741e-01  -8.5075451389784815e-03 3.4751765401765539e-01 -2.7628325046932134e-01  -8.8719229059930887e-03 3.3442953367574257e-01 -3.2003724033266362e-01  -1.0408752567404569e-01 3.2123192203491518e-01 -3.1375954184531663e-01  2.4279644234671588e-01 2.7862214515823364e-01 -1.7598232490677057e-01  3.4401205026055920e-01 1.9097315706345833e-01 -1.6380779178971941e-01  2.0333735327814834e-01 2.9112298796663538e-01 -2.1764287708155375e-01  1.1812648303606582e-01 3.4823567681538486e-01 -1.8623494695223677e-01  6.7155630318747245e-02 3.5870699507703024e-01 -2.0097668318284762e-01  -4.0433908333849172e-01 -1.6201416359636681e-01 -1.2138995236831361e-01  -3.9126007435411858e-01 -1.7764403336481271e-01 -7.5331922665015830e-02  -4.3246644931567962e-01 -5.2303937308026599e-02 -6.3610094568264761e-02  -1.2535478820953469e-01 2.8943545293533757e-01 -3.6603405538059314e-01  4.5017968573650452e-01 -1.5922075077388873e-01 -2.8319070008842356e-01  3.4907418795406636e-01 -2.1742058251400553e-01 -3.0582031761325695e-01  1.6737539447669650e-01 -4.1914945678616938e-01 -6.4545246807811985e-02  -3.3043211982660775e-01 1.3463079684503368e-01 -3.2873915342361715e-01  -3.7941859903006497e-01 3.8438724305214347e-02 -3.1133787594458195e-01  -3.2904594800957893e-01 1.7080042452930733e-01 -2.5075256566775606e-01  -4.0218716244589581e-01 -1.5045926146252969e-01 -1.7728041543297005e-02  -3.3858183103565054e-01 -2.5639951349792045e-01 -6.5363201127031811e-02  -2.3616210230891877e-02 3.9501611197145053e-01 -4.9465733206611136e-02  -2.3501011201219214e-02 3.9344566330094310e-01 -1.0435727345671762e-01  -1.5764163076559357e-01 3.8793991163274016e-01 -5.6213644424295404e-02  -3.7343615328189717e-01 -5.2574298340456002e-02 -3.7651684033874316e-01  1.1987035760959304e-01 3.7029716093887916e-01 -6.7137827991843368e-02  4.6093429900354665e-01 -1.5722166165888488e-01 -1.2077242326338698e-01  -3.8718242277159165e-01 1.4851278419882227e-01 -1.2676388830501850e-01  -3.2402178350763444e-01 2.5692080652877974e-01 -1.2415826470553799e-01  -3.6138223113330825e-01 1.6031635230836702e-01 -1.7959554000636030e-01  2.4797727008653103e-01 -3.5930607012176358e-01 -1.4882087378146971e-01  -4.2693051736567272e-01 8.1512516855064152e-02 -8.3653602575292807e-02  -4.2655412094867523e-01 -5.8177886804590462e-02 -1.3584867480496543e-01  -2.8753577376055489e-01 2.5184852581985945e-01 -1.9370663328331403e-01  -3.0858858639281156e-01 -2.8699434037147270e-01 -1.8613351282793381e-01  -1.9136045317119488e-01 -3.3905531165409414e-01 -2.1741725259303027e-01  -2.1638459606849966e-01 -3.5272672590583171e-01 -1.5976454983155292e-01  -1.4637613182552928e-01 3.8535965229189678e-01 -1.1508353466674447e-01  -4.4303250481170353e-01 7.0762467838654891e-02 -3.1414924054160021e-02  -4.1637973359759323e-01 1.8106806049710947e-01 -4.0632492392417709e-02  -3.8820738617254619e-01 1.9848307499226633e-01 -8.0304485528728861e-02  4.5939675436818606e-01 -1.6841293362476417e-01 -2.0054084948110532e-01  4.2012274343982126e-01 -2.3950434982100827e-01 -1.4145708145291178e-01  3.8596604649709332e-01 -2.6655959157526887e-01 -1.8847381459906787e-01  -5.2371166555739432e-03 3.8944960812842411e-01 -1.5855627921324228e-01  -3.3966614577652354e-01 -2.6889312626343292e-01 -1.2804903446476262e-01  -1.0937105199711443e-01 3.7653457302467974e-01 -1.6192228537648459e-01  3.4061938549276943e-01 -2.8540710986579632e-01 -2.3561294507526565e-01  1.5927531478450319e-01 -3.5534791599004273e-01 -1.9265391064340059e-01  -3.4282366972439826e-01 2.7845964850150612e-01 -7.0440630235384077e-02  -2.7799307290564224e-01 -2.7444304092289828e-01 -3.3679770310049506e-01  -1.1566702764215020e-01 -3.1357982349395908e-01 -3.5240521527129576e-01  -1.5379509246078918e-01 -3.2808840802245992e-01 -2.8609686857815980e-01  1.9357848299076444e-03 -4.3770095829209898e-01 -4.3277780205920997e-02  -1.8008120680328621e-01 -3.8769273640849278e-01 -3.0852270335370465e-02  -8.2705617672720416e-02 -4.1335974620628807e-01 -9.0261788686014990e-02  4.4241362833905618e-01 1.2399348803158618e-01 -3.6861493939629758e-02  -3.9341680111390731e-01 -1.8517932365276002e-01 -1.8898257187117384e-01  4.6515336408589830e-01 -5.4864708914926001e-02 -1.8322223324823533e-01  4.2850682445188121e-01 4.1777854412536723e-02 -2.2431641852082596e-01  4.7422798452201192e-01 -8.8759715299854963e-02 -2.5405677263884829e-01  4.4732163784857143e-01 -1.3076937340664967e-02 -2.7117535051004404e-01  3.9068721784278571e-01 3.5260123977287346e-02 -2.7006510102093700e-01  3.7369798676200044e-01 1.0622259672003329e-01 -2.5231643978321716e-01  3.3448176773305904e-01 1.7949037977625423e-01 -2.2114676049323828e-01  -2.7641173438579736e-01 3.4251973107975159e-01 -5.4086247246619645e-02  -3.7650472783511924e-01 2.6452819658118265e-01 -2.3194573243979000e-02  -3.1298668272411589e-01 -2.9159950288234654e-01 -1.7744121018612037e-02  -4.4797360910922696e-01 -1.2753654306758871e-02 -1.0909390664287488e-02  -1.1563414355644513e-01 -3.9188268605573734e-01 -1.4828684610808293e-01  -5.2589731555159037e-02 -3.6378791510609593e-01 -2.2289540962753823e-01  -2.4020431962275460e-01 -3.4819510175170426e-01 -9.3290765583465274e-02  -2.8889487713232748e-01 -2.8341099954905297e-01 -2.5560845035966273e-01  3.1556248493947164e-01 1.6406366696138244e-01 -2.5959245429048505e-01  4.6371349944730356e-01 -8.5634276133049386e-02 -2.8134456521747142e-01  4.2616402040278734e-01 -1.0600502799191913e-01 -2.8771717319498219e-01  3.4260641317250146e-01 -1.6446484634233302e-01 -3.2766160258937360e-01  3.7883311824345611e-01 -3.2216871574335212e-02 -3.0530745190694591e-01  1.2243604755106646e-01 -3.2376623174153013e-01 -2.6100736432023769e-01  6.7534248260054691e-02 -3.6030702338491943e-01 -2.1605254672946894e-01  -1.5624271515734785e-02 3.6445567657765804e-01 -2.2045819008597667e-01  1.0551541655513602e-01 3.3554584911343988e-01 -2.4441745605264403e-01  -4.1574931267330389e-01 -7.4402177133935793e-02 -2.2051333454190661e-01  -4.1181015466698667e-01 4.5581640650670323e-02 -1.6172352285574174e-01  -2.4736878760496098e-01 3.4184197287914475e-01 -1.0894375558133551e-01  6.9385428875683068e-03 -3.9830964516404033e-01 -1.5846432149093884e-01  6.8155961224038705e-02 -4.1765021647823186e-01 -1.0476797510070537e-01  -3.9357965564111297e-01 3.6838297756085769e-02 -2.4319995341420456e-01  2.8073992011458859e-01 2.1786103672131352e-01 -2.3958372705257155e-01  -2.3430582651137619e-01 3.2458977541771783e-01 -1.4793825723389661e-01  -4.0100690447421050e-01 -7.9758051739618252e-02 -3.0444767524885646e-01  -1.3982922829037131e-01 3.2634204771991920e-01 -2.6188905389634276e-01  -3.6929795334866761e-01 -1.9957159926456425e-01 -2.8592909712260967e-01  2.2531245765755978e-01 2.5855453569521869e-01 -2.6200391319114902e-01  1.8354234280428586e-01 2.9877977566804620e-01 -2.3146217748451695e-01  -1.6758626729474632e-01 3.3192675061084559e-01 -2.0406329406413504e-01  2.6814803267180637e-01 -2.7743722619426797e-01 -2.9466807917371718e-01  2.6610724584240231e-01 -3.0054818860003374e-01 -2.6035120221806979e-01  -2.5889652210993258e-01 2.4756113224778492e-01 -2.7318781447673951e-01  -2.2894341648919167e-01 2.5778301548633392e-01 -3.3007787507929010e-01  -3.1732505062408500e-01 1.0898688258548535e-01 -3.8315997682876873e-01  2.0452418255076082e-01 -2.2802803900301694e-01 -3.8277559240547609e-01  2.1351706745328197e-01 -2.4623063765628930e-01 -3.5135590315651061e-01  1.6932588266579313e-01 -2.8271179624467752e-01 -3.1941603645576072e-01  2.8921100288466295e-01 1.7899049313130549e-01 -2.8986022704456932e-01  -4.4643533295203264e-02 -9.2630571979516005e-02 -5.4949599647378822e-01  -1.1781406754225039e-01 1.0953326211688862e-02 -5.5366960072885840e-01  -1.0156228258942007e-02 2.3596605091024569e-02 -5.3859578669503239e-01  -3.2436504639538866e-01 -9.5402611181451286e-03 -4.2753866993076117e-01  -3.1014395132017386e-01 -1.3440076326192335e-01 -4.3993483572172143e-01  1.8388119997268790e-01 2.7470465763863222e-01 -3.1735433681729175e-01  -2.0418525250391212e-01 -2.7800881119815785e-01 -3.8993233618688783e-01  -2.0748164035492087e-01 -2.4404505497626913e-01 -4.3653323803831029e-01  -6.1616705524370541e-02 -2.9345563317675943e-01 -3.9922536511524009e-01  -3.1851070773765772e-01 -2.0195016705230026e-01 -3.9260477282770229e-01  -3.5263329087310944e-04 -3.2686915013944806e-01 -3.0113853458402939e-01  -3.6764868112731397e-01 -1.7316243181289365e-01 -3.4721947065382591e-01  3.1181132370218828e-01 5.2660233764613179e-02 -3.5539736769191288e-01  3.3116151039894526e-01 9.1233356340199911e-02 -3.0867199088746622e-01  1.2962531031235189e-01 3.1411123701337901e-01 -2.8878478593362034e-01  4.1423900605822593e-02 3.2427522783895851e-01 -3.4393870109608132e-01  -2.9136157271577667e-01 -3.9277069217582200e-02 -4.7505574879922341e-01  -2.1981376287857990e-01 -1.6289936277458358e-01 -4.8542522764057511e-01  2.5048028482676160e-01 1.9909182198114680e-01 -3.5016871373010727e-01  5.2519687551149788e-02 2.2372486220006987e-01 -4.9767854839834363e-01  1.5486795775889173e-01 2.1686722363701150e-01 -4.5339637404993133e-01  1.6004937766218483e-01 1.4907842049093212e-01 -4.9412537017798086e-01  5.3076195108909922e-02 -2.9429441687847613e-01 -3.5019484895432901e-01  8.4392409140260152e-02 -2.7768084227000295e-01 -3.8388249418239534e-01  5.2154441676839067e-02 -2.7140758853912628e-01 -4.2275249221658212e-01  -1.6379982457788456e-01 -6.1221307702834710e-02 -5.4401309667343600e-01  3.5531100743584038e-02 1.3636252778702485e-01 -5.3741652728433387e-01  1.1524422757233607e-01 6.0545533896362885e-02 -5.2780683222916003e-01  -2.7505735222453198e-01 9.9505969610291914e-02 -4.4877928267335143e-01  1.1088302983198876e-01 2.9779618098537047e-01 -3.7514492177127085e-01  1.6618250367179005e-01 2.5026013719320489e-01 -4.0359902564793187e-01  2.0930773633475109e-02 2.9526910695462250e-01 -4.3097459949717265e-01  2.3236856672063283e-01 -1.2682794733242675e-01 -4.4252265397880663e-01  2.8851601712227654e-01 -1.3303306252247871e-01 -3.8089616886964250e-01  1.7079287738914037e-01 -2.1972226623551316e-01 -4.2512052986420873e-01  -2.4270057875712406e-01 2.0093601969502395e-01 -3.9154524791880718e-01  -1.8219396184443526e-01 2.2447940900534191e-01 -4.3557676963197761e-01  -8.4767882416593901e-02 -2.5811193913196651e-01 -4.5194433983732740e-01  -3.9090156400770959e-02 3.0428384940794290e-01 -3.9840227215219925e-01  1.0808865669383301e-01 -1.9943056815041629e-01 -4.8651268387781504e-01  2.8095208223292256e-01 4.7601938283198132e-03 -4.0836737494542791e-01  5.7520052189224680e-02 2.6448220465012756e-01 -4.5954813008792100e-01  -7.5236962889857553e-02 2.3093335214569760e-01 -4.9320195503686659e-01  -6.7825965910268543e-02 1.4445015485944993e-01 -5.3798078088592127e-01  -1.0583473425200182e-01 2.5503827450631250e-01 -4.5648993224900719e-01  2.4977802949861533e-01 1.4914975168105121e-01 -3.9808846169785633e-01  -2.0554488439547722e-01 1.3835528485860832e-01 -4.9099153845940818e-01  -2.3868171526299686e-01 -3.9123972781034584e-02 -5.0943073865203026e-01  -2.6883953123720117e-01 5.6618858834946537e-02 -4.8411808722422950e-01  4.4983635116910531e-02 -2.4762693797770458e-01 -4.5746787204803369e-01  -5.8605241419870821e-02 -2.1544426481880655e-01 -4.8841130553280526e-01  2.2253982159658081e-01 1.2079291795555412e-01 -4.5172821212052389e-01  1.8690027798751782e-01 -7.8379368029789898e-02 -5.0438575308387568e-01  2.3761612198990117e-01 1.4264128932217009e-02 -4.6218941113305023e-01  3.4006250423083978e-01 -7.4698663496781212e-02 -3.4702027479068698e-01  -1.5334229486777429e-01 -1.4138124750913189e-01 -5.2071854628822467e-01  -1.6035549374545272e-01 9.3011635994152062e-02 -5.2907117822072791e-01  -2.1239231015275750e-01 3.6765733345100193e-02 -5.2541126213613298e-01  -2.3164955653753819e-02 -1.6537141854562268e-01 -5.2433287221345137e-01  8.2729410043100624e-02 -9.2919641756688542e-02 -5.4352359474711487e-01  1.8446220032890404e-01 4.4912357116644194e-02 -5.0206739705589709e-01  2.9272772368630018e-01 -7.8373842018697445e-02 -1.1799309946739808e-01  2.9783746153132651e-01 -9.4633228674309747e-02 -1.5283572944379797e-01  2.8913714201151464e-01 -2.6425004884976556e-02 -1.5520932411074320e-01  1.6656520052141949e-01 -2.4286654249152428e-01 -4.7313003313639863e-02  1.1142723537329866e-01 -2.5104898752889865e-01 -6.4417388443216678e-02  3.0832285159646722e-01 -6.3380143177224346e-02 -3.5606919400570612e-02  2.9710887461240276e-01 -1.1177536235795905e-01 -3.8997987983495089e-02  2.6583460560789629e-01 -1.5485679687909612e-01 -1.0728453572340010e-01  -2.1581398921672743e-01 -8.9252186419804466e-02 -1.1182041136557655e-01  -1.9877024415415279e-01 -1.2553140722085315e-01 -9.5934405527958663e-02  -2.2669642319728409e-01 -8.6784674070465473e-02 -7.2499332214497558e-02  4.6132988003352679e-02 -2.5687338004642335e-01 -6.4744093039747277e-02  -7.2208630836246332e-02 1.8866695024757138e-01 -9.1805483800796936e-02  -1.3161017107394840e-01 1.7250971532592127e-01 -7.2393578740655343e-02  -9.5099526372356871e-02 2.0024003010748637e-01 -5.3850289925556502e-02  -2.1358424528584741e-01 6.9694863086089853e-02 -1.1457391180458937e-01  -2.3605530995257396e-01 3.0534046781514744e-02 -8.4067652127680817e-02  -2.2010411359810797e-01 9.0425353383415674e-02 -6.7521930018727153e-02  2.3609707040180139e-01 -2.0206028398443154e-01 -4.3396716067020939e-02  2.1484084060074471e-01 -2.0653399197356359e-01 -7.8121174438980437e-02  2.6963238823107299e-01 -1.5847397893209919e-01 -6.1877411868993627e-02  -1.3392089635778834e-01 -1.7251985063698369e-01 -1.6172255584864861e-01  -1.5847402384768922e-01 -1.6699751623754008e-01 -1.2341803461150558e-01  -1.8253577142026078e-01 -1.3750559591167652e-01 -1.4279315717362609e-01  -1.9025636388991096e-01 1.0239824007015620e-01 -1.3911853409373254e-01  -2.1757673589343549e-01 5.2610290178348992e-02 -1.4622034500698081e-01  -1.9778008592774415e-01 8.2429908192101720e-02 -1.7285425789064493e-01  -2.2142634027138947e-01 3.8415526802422217e-02 -1.8448990116403760e-01  -2.3427445725411683e-01 -1.1043058567085600e-02 -1.7324063399909048e-01  -1.0874863618296690e-01 1.7242186179648783e-01 -1.1241118166446358e-01  -8.6132493218987013e-02 1.6501024710023743e-01 -1.3604942787531266e-01  2.9144092859462306e-01 -5.9780493217189645e-02 -9.4199875942441474e-02  2.8738451634083523e-01 -1.0709401984718167e-01 -8.7658821166930953e-02  -1.7631579503291905e-01 -1.6603012468929618e-01 -6.6169851529768814e-02  -1.1712013515867056e-01 -2.0143976199694122e-01 -1.0506825162198059e-01  -1.1579584931028254e-01 -1.9029570951506108e-01 -1.4380389183518583e-01  -2.2943064409363928e-01 -6.2347369265974770e-03 -1.3785925776903510e-01  2.2843632856306750e-02 1.7227480242342533e-01 -1.3073911767264659e-01  -1.8587541032580621e-02 1.7563250105529346e-01 -1.3198602574925491e-01  1.1083776344536642e-02 1.9046291920432937e-01 -9.7031112325437874e-02  2.5304940480282617e-01 9.5562009393472216e-02 -6.6032813011400696e-02  2.5368448277929262e-01 6.0617032755818034e-02 -8.9884979120115435e-02  2.1353468100925849e-01 8.7901373085768661e-02 -1.1411887222026275e-01  2.4628848663869810e-01 4.1833767901849409e-02 -1.1346266425107339e-01  -1.4952815147758591e-01 1.4691872904620482e-01 -1.1440859373298794e-01  -1.9314887642693709e-01 1.1506564146881708e-01 -1.0054487989594041e-01  -1.8194495838344260e-01 1.4359003066818235e-01 -6.1524847728201437e-02  -7.6919769533906293e-02 -1.8716863382583840e-01 -1.8809030712362040e-01  -6.8656420467049131e-02 1.6259056503721225e-01 -1.5625993229711108e-01  -2.9642593493063370e-02 1.6340587986815727e-01 -1.6846920523607417e-01  -7.1155519523723690e-02 1.5091927457931481e-01 -1.9864176274939030e-01  -1.1346251601289793e-01 -1.7855453715013772e-01 -1.9668687095615714e-01  -5.1959127570127314e-02 2.0973856224738799e-01 -5.2694908232184298e-02  1.6354094571727515e-01 -1.6514471719174914e-