<?xml version="1.0"?>
<VTKFile type="UnstructuredGrid"  version="0.1"  >
<UnstructuredGrid>
<Piece  NumberOfPoints="611" NumberOfCells="1825">
<Points>
<DataArray  type="Float64"  NumberOfComponents="3"  format="ascii">0.2248913726751151 2.235427276960721 -1.284247701656748e-15  0.2083776708179854 -2.533907938164421 5.480956538742374e-17  -0.4256261027326487 2.236829083368499 -1.31635487913132e-15  -0.9804221457749628 1.898028335398982 -8.334202049510453e-16  -1.37017879996422 1.374041777582617 -8.663750107997812e-16  -1.519991210549608 0.7379978019711061 -8.558037014131083e-16  -1.506724344258368 0.09099017295005028 -4.333096199735315e-16  -1.291183984731596 -0.5051553786359178 -4.268549164503158e-16  -0.854961601754089 -0.9565059135907021 1.585955445222746e-18  -0.2858622286805423 -1.217796719326193 8.17243164270467e-18  0.3386751064852583 -1.24890152681959 1.666039895651634e-17  0.9412035841375869 -1.058401523697051 9.840506870636024e-18  1.436613958353534 -0.6656148739187135 8.37695714413606e-18  1.765578110840078 -0.1255059075735426 -4.501709391044156e-16  1.875254596669394 0.4967142735357636 -4.293059501767585e-16  1.727773354047623 1.11339008067397 -8.609611408173034e-16  1.366622036156186 1.637898100099412 -8.5325328679807e-16  0.8529869899813137 2.041704996247885 -1.311715190119215e-15  0.9360747057005163 -2.445590421309689 0  1.613741578793888 -2.154540058754533 1.283041694688687e-17  2.19978055075789 -1.701487780673654 1.210322156329525e-17  2.661913518325851 -1.121651950558141 -5.97112699648086e-18  2.972572310098239 -0.4518506145354583 -4.117401876594547e-16  3.113563142244176 0.2800692305781956 -4.052658212904737e-16  3.043260922625305 1.031477170577402 -8.606600802774263e-16  2.714308078956722 1.713351691327265 -8.761934698521713e-16  2.171359551609666 2.237750428922862 -1.304934178562964e-15  1.524206795983149 2.598058132178747 -1.275288255339744e-15  0.8348042117876511 2.822363677460313 -1.311488730224536e-15  0.1259378778503736 2.966935477205747 -1.298577499700088e-15  -0.6080504036645402 2.96516546006539 -1.320298400339652e-15  -1.297331928255836 2.704576707670287 -1.28715900364651e-15  -1.872051817873428 2.246280355752417 -1.309041039447523e-15  -2.297024718955585 1.642753078314405 -8.723601382948808e-16  -2.555637812859608 0.9536364552758285 -8.664825241601439e-16  -2.659657429524795 0.2238674953583255 -4.258076422725232e-16  -2.543714294798729 -0.5061811449582549 -4.252391447681229e-16  -2.244908848679233 -1.177554659450089 1.55816118259291e-17  -1.790927517130507 -1.751660563773321 1.813979321518482e-17  -1.204593278183004 -2.189984585845567 2.872222749405496e-17  -0.5215849517461428 -2.457643088185638 7.429408163163531e-17  -1.745274270600174 0.2011992178375823 -0.5804864704536342  -1.692530561395306 -0.3453974170503972 -0.6240826674685293  -1.041040130507791 1.844758334748893 -0.8101411682638832  -0.6194071562926136 2.130884322634072 -0.6446647338656003  -1.605054108651371 1.048465045790381 -0.6220681667463319  2.055332002888406 0.7786518473857701 -1.503992980918524  1.896288831530396 1.223539997668671 -1.048533220821154  2.032951865652423 0.7238948500036347 -0.6390488998964312  2.150616662767343 0.2740065106910772 -1.270296492878466  2.093440794361467 0.2564519199963922 -1.887818182370905  -1.252325181070812 1.5097337150277 -1.441532700132029  -1.372868708187565 1.496436298080135 -0.713626434507012  -0.786149386826451 1.862176620540247 -1.361937550790975  2.029053372475973 -0.440858981558985 -1.550344362156213  1.675042538711006 1.318371448113132 -1.780023619356412  1.081331453491549 1.680800931740226 -1.929403043451481  1.466175910264818 1.706470750805817 -1.028576601524398  1.743217885773056 1.357995632997269 -0.5216042943632675  -1.642841388837437 -1.172674658950521 -2.849823339243187  -1.709862391651118 -1.119579004890015 -2.325811064671325  -1.903599057410429 -0.7460538641867837 -2.741546967573656  1.980823263355918 0.1961674560472138 -2.520290200914551  1.995087672707567 -0.2910894339718507 -2.241307476718678  0.7551917846796821 1.981012228376266 -1.384692504606912  -1.068482663326112 -1.629209661486498 -1.490025691514726  -0.5736478365567271 -1.578128182462395 -0.732822684201607  -1.103295650642616 -1.328688956555294 -0.8001147316786115  0.1515623206602406 -1.765775687824375 -1.022105097220038  -0.3025352396126191 -1.883505700162475 -1.523555610853926  2.038961155477848 0.038685707691802 -0.6865502744410478  -1.409707678738104 -0.8807787421575125 -0.607505809439061  1.314900956957886 -1.10739367564915 -0.6398206479579771  1.675481786152403 -1.093490209650863 -1.341270788881638  1.796286805542416 -0.6000561057750772 -0.7289879284617459  -1.788407024771052 0.5503866507893718 -0.9356891870268416  -1.936958349316805 -0.144541260226107 -1.31327348051764  -1.856804063981338 -0.8382517538051766 -1.85937153574613  -0.08606924705559846 2.274287065051476 -0.5265109241879872  -0.2828504123088062 2.085141390245042 -1.239229933918205  0.6443562048649246 -1.486929417806651 -0.6518537503971958  0.04058009167174273 -1.48054377247974 -0.4240395798755321  -1.647934444063648 -0.6101512337623419 -4.233983769320332  -1.942567448491471 -0.3911944080910223 -3.543930266112262  -1.849900483393902 -0.07184527522455789 -4.318701326420525  1.074459728610171 1.990360842147282 -0.6448726500868712  0.7672547496744674 -1.784930676720568 -1.407069416573228  0.174361383947083 1.919447059917041 -1.801905798862141  -0.2597720391931657 1.766896980871669 -2.498714227157177  -0.4613018610118921 1.835263266679849 -1.860044915639731  -1.300530783848914 0.8454923907720957 -5.402133456023588  -1.576289479559086 0.9948188225003147 -4.528321973746338  -1.060237984514369 1.307174847010064 -4.968795800481026  0.537078866566978 2.206025156086055 -0.6812319442766804  -1.533668734169136 -1.175021999086816 -1.306308957450253  2.165326157675098 0.3075756469823556 -5.082172243499953  2.207373723230018 -0.1025043045538637 -5.335223946619332  2.241979823618511 0.2885373512156169 -5.780406856074435  0.7703935258843212 -1.708206606372644 -5.294257420757209  1.333315398631554 -1.567166990441052 -4.854739268679864  0.8865175028157023 -1.85329340802573 -4.440263793226961  1.285937748897432 -1.676517966946978 -4.01716024647414  2.094354880327103 -0.01501243718971443 -4.660438723876504  1.806427946302119 0.8030375503119126 -6.641310398767853  1.657939042952469 1.09735174522409 -5.948274131090493  2.06824400619269 0.6573397854603946 -6.130247349335768  1.287424792144981 1.336515291062424 -2.591859699105285  1.826781185819554 0.8602511408568554 -2.310876132182763  -1.910339477821904 0.4903764370910478 -4.282285903383346  -1.886858697707492 0.8547216771655843 -3.860484321296575  0.5573692537325212 1.684120379826796 -2.473665783508015  -1.644165069357154 0.3265242464113882 -4.948367307020149  -0.9603340653876024 1.626563925073409 -2.167939830698955  -1.439174357749361 1.286639315652853 -2.053779190840203  -1.670172699320145 0.980756687497645 -1.36589604849904  1.226652506648531 -1.479954028847076 -1.21206010517776  -0.7033925959187193 0.3016923170159718 -6.526295608189916  -0.9680289876617222 -0.2184165456190845 -6.116686156544596  -1.093435701402911 0.38678732397128 -6.02921815764848  1.999627776115344 0.7586603148298344 -5.416489004709247  -1.9354823847025 0.3878034247565493 -1.725201506898101  -0.7782986370589012 1.672442098121988 -3.774658098062999  -0.2578945115163275 1.711097763381563 -3.986658207824345  -0.6570027643704147 1.599790989871777 -4.477060309438744  -2.042706234388835 -0.1767355117683167 -2.092023970069037  -2.111497528870673 -0.0570952947609447 -2.836522488785168  1.797156474873293 -1.040984450198267 -2.169821844831649  0.9295323491279002 -1.927045258534482 -2.204180785336553  1.425083593304452 -1.519698446621366 -1.809176309010665  -0.2466262116893489 1.732381110069935 -3.336869580667066  1.861009349360607 -0.6832701749125288 -2.823564786694339  0.4938095715625965 -2.102963683692543 -2.806452902539975  -0.1382473243284484 -2.051381640505001 -2.450515369145635  0.02382141112355762 -2.124323972677209 -3.308207620987548  -0.3801181311173677 1.563770979972786 -5.226474304955584  -1.358641483688782 0.1108496312971074 -5.537210050232585  1.610579597234239 0.9198015719574262 -3.276825777506541  1.163905910019276 1.321587049675384 -3.647961475957549  -1.793564486800953 0.817349044125637 -2.028156594897431  -0.8268676298474744 1.67291816096315 -2.977814851088832  -0.08727866197915396 -1.014571684142175 -6.459545241782859  -0.2782218904870552 -1.328178438268735 -5.725901519689985  -0.644970617788162 -0.8012854845522324 -6.094980103708885  -1.328591812427129 1.446000778421964 -2.792080035304182  1.909637020771052 -0.1976762674879021 -3.084825978771724  0.339730997257806 -1.981388598511175 -1.872137559576069  1.069189113201141 -1.891765773244323 -3.162562909915236  1.44215425063606 -1.577130233202777 -2.646894784747663  -1.259722548528277 1.508186415713609 -3.588470492927011  1.693212025401036 -1.134994331723761 -3.087665163204082  1.884672830895574 0.3579022810237467 -3.305751298953506  1.94411414511271 -0.1157627304389323 -3.916858434388644  1.975427185216066 0.4126196658548429 -4.102733661085397  0.199134359981641 2.132094713783338 -1.192558761054441  -0.7661170728670087 -1.844335910520486 -2.236346579374423  -1.777136795254166 -0.7274184830683477 -1.171193576247582  -1.698314376507254 1.09376885199513 -2.581125397020226  -2.061100786089937 0.2703915523219904 -3.607430955700316  -1.557093563799343 -1.273015181703555 -1.86603570979913  -1.341747520815539 -1.514858731812679 -2.412877029138706  1.831785099540536 -0.7033819050128393 -3.661650615880681  0.637479559442891 -2.043519106561433 -3.802266112167111  -2.019247984233867 0.424302707237096 -2.372046109873891  -0.8494724819713364 -1.03351426752159 -5.371434578097825  0.1257347646311696 -2.044569559145781 -3.933356607683614  -0.3814889037323205 -1.894644282542447 -4.009732764564788  0.2842585570218896 -1.922403134527622 -4.542834574613726  -1.381440848048828 -1.056407958575306 -4.1
[...]
<PointData  Vectors="f_1278132-0"> 
<DataArray  type="Float64"  Name="f_1278132-0"  NumberOfComponents="3" format="ascii">1.0295314022783768e-01 4.7527854545482989e-01 0.0000000000000000e+00  -6.7823952558535433e-02 -2.8752268617023835e-01 0.0000000000000000e+00  -5.3649019393303278e-02 4.6924308193795849e-01 0.0000000000000000e+00  -2.1389206570569519e-01 4.3058187965562300e-01 0.0000000000000000e+00  -3.5153679126152909e-01 3.3983529739577678e-01 0.0000000000000000e+00  -4.5788828880609850e-01 2.0531646476729026e-01 0.0000000000000000e+00  -4.9214443993938478e-01 4.1977455075894711e-02 0.0000000000000000e+00  -4.6566173544246642e-01 -1.3340323806304952e-01 0.0000000000000000e+00  -3.7997957613989930e-01 -2.9885195836541062e-01 0.0000000000000000e+00  -2.3899902935257933e-01 -4.2064875256504336e-01 0.0000000000000000e+00  -6.5914403972689994e-02 -4.8140582340234167e-01 0.0000000000000000e+00  1.1287404017480880e-01 -4.6321638879285698e-01 0.0000000000000000e+00  2.6583467434182756e-01 -3.7456786876747883e-01 0.0000000000000000e+00  3.7026264627371025e-01 -2.3146244539179137e-01 0.0000000000000000e+00  4.1721283701830203e-01 -5.8225584434037442e-02 0.0000000000000000e+00  4.0893689527753313e-01 1.2382458054347852e-01 0.0000000000000000e+00  3.5071337867258934e-01 2.9157572090186801e-01 0.0000000000000000e+00  2.4400582951627817e-01 4.1105242349910526e-01 0.0000000000000000e+00  8.9937003411681947e-03 -2.7896812983581326e-01 0.0000000000000000e+00  7.7863478976543277e-02 -2.5272240687281983e-01 0.0000000000000000e+00  1.3161730754875692e-01 -2.1414656877797278e-01 0.0000000000000000e+00  1.7297946413016596e-01 -1.6058513594143306e-01 0.0000000000000000e+00  1.9663560836327909e-01 -9.3267013346129884e-02 0.0000000000000000e+00  2.0385226409057380e-01 -3.0362767527438380e-02 0.0000000000000000e+00  2.0460466657191059e-01 2.1556420017002000e-02 0.0000000000000000e+00  2.0839802152313605e-01 7.9923218989288475e-02 0.0000000000000000e+00  2.1157490726898601e-01 1.5939011727707139e-01 0.0000000000000000e+00  1.8101305845540780e-01 2.4636961246708711e-01 0.0000000000000000e+00  1.0916445602543273e-01 3.1679453997724033e-01 0.0000000000000000e+00  1.4411017051129358e-02 3.3388670655809943e-01 0.0000000000000000e+00  -6.8301525325468959e-02 3.0734019594046325e-01 0.0000000000000000e+00  -1.3837861520471623e-01 2.7100764127510468e-01 0.0000000000000000e+00  -1.9842628927006759e-01 2.2686381398447861e-01 0.0000000000000000e+00  -2.4521022073770810e-01 1.7416179804479207e-01 0.0000000000000000e+00  -2.8147320945034682e-01 1.1323430171496975e-01 0.0000000000000000e+00  -2.9225576560167443e-01 4.2157562424278504e-02 0.0000000000000000e+00  -2.9513384091550998e-01 -2.7075322083272298e-02 0.0000000000000000e+00  -2.8287365538764142e-01 -1.0047724288917795e-01 0.0000000000000000e+00  -2.4957331575661112e-01 -1.6744396968595640e-01 0.0000000000000000e+00  -2.0061854117182190e-01 -2.2375968460333062e-01 0.0000000000000000e+00  -1.3882759517690776e-01 -2.6642385218522585e-01 0.0000000000000000e+00  -4.8058304747005981e-01 6.1214484487296106e-02 -1.4914703979821321e-02  -4.7570113719482726e-01 -7.0806973205620183e-02 -5.1880844413081809e-03  -2.4186285646557473e-01 4.0503967814313707e-01 -7.1750383882166105e-02  -1.3285666488061301e-01 4.5268162998315858e-01 -6.0319877292167014e-02  -4.0998298112068415e-01 2.4999673447377127e-01 -3.4728427913826548e-02  4.0288599965322236e-01 1.1192960019689330e-01 -1.0819475647021237e-01  3.7288448687615844e-01 1.9138596626264701e-01 -7.1451797542395973e-02  4.1157707848057090e-01 4.6684463441837326e-02 -2.6297416932515950e-02  4.1814452429899662e-01 -2.6456368823366008e-02 -7.5474994119618083e-02  4.2758776075330457e-01 1.3343883038646701e-02 -1.3282454181175257e-01  -3.0166615361849813e-01 3.6550615761275501e-01 -1.1690193775387056e-01  -3.3134193541345575e-01 3.4086633400352701e-01 -5.2471908846624581e-02  -1.9053285757169022e-01 4.3973875157074926e-01 -1.2472147069881041e-01  4.0487944997920949e-01 -1.7507217452652724e-01 -8.8542121402877469e-02  3.3765065168128838e-01 2.7884563447866978e-01 -1.4818887452103002e-01  2.2873366356075947e-01 4.1641619107938599e-01 -1.7576422378594347e-01  3.0282067649432570e-01 3.2915408308041111e-01 -8.3936770285479995e-02  3.7393899439808570e-01 2.1352743681632935e-01 -2.4181387248519266e-02  -4.0637296128491118e-01 -2.9516116776339790e-01 -2.2990088076483362e-01  -4.1865709160265069e-01 -2.6289014471513578e-01 -1.7101821701701692e-01  -4.4735589497468453e-01 -1.9251508239902210e-01 -2.1809350655188708e-01  4.3794955344383313e-01 4.1480110571065681e-02 -1.7836647736452216e-01  4.3909459843258702e-01 -9.5298229226289694e-02 -1.5276622648309679e-01  1.5894978488835146e-01 4.5469861424187707e-01 -1.3485252211247253e-01  -3.1409309391576079e-01 -3.8176602710030511e-01 -7.1972862898564929e-02  -2.4639310648192930e-01 -4.2338820860095200e-01 9.2502117907417903e-04  -3.5683754869557927e-01 -3.3245734702181839e-01 -2.8348051242618765e-03  -6.9731546422380594e-02 -4.8634529406722493e-01 -1.4769423202944462e-02  -1.6178870708988244e-01 -4.7454430771982525e-01 -6.6176988582961060e-02  4.0638946706282242e-01 -1.2412641267296230e-01 -2.0700137395308824e-02  -4.3216362861843682e-01 -2.1799220066167160e-01 5.5957801206595057e-03  2.2706214077651851e-01 -4.1139487897630611e-01 1.4749148428200016e-03  3.0725610613548604e-01 -3.3360603038311959e-01 -5.5562641395237811e-02  3.4976793531123612e-01 -2.8031974012480593e-01 -1.4043415323514568e-02  -4.5568533034732295e-01 1.4915696099380490e-01 -4.7758450922659651e-02  -4.7143724707175105e-01 -9.2306889916553680e-03 -6.8919780696005684e-02  -4.4431765991133787e-01 -1.7820660699470975e-01 -1.2276185195430193e-01  -1.1699914505536998e-03 4.7584226621603720e-01 -4.9902492544108730e-02  -7.0051941859773911e-02 4.7830218071332636e-01 -1.2231143096320082e-01  5.0142989367829773e-02 -4.8613386242164813e-01 1.0421538474166513e-02  -1.1727772924613632e-01 -4.8233037803674833e-01 2.2024876228868642e-02  -4.0591312567348314e-01 -2.2899371383723388e-01 -3.8691356049900677e-01  -4.4070063917156960e-01 -1.5015281566409783e-01 -3.0693179758826011e-01  -4.0485556565549063e-01 -1.0388603542549590e-01 -3.8341689719896460e-01  2.4346842880705938e-01 3.9516770371884097e-01 -5.2607688591040459e-02  7.7328065747106364e-02 -4.6970719684020573e-01 -5.1441037687321715e-02  2.7217248395813295e-02 4.9656303975568178e-01 -1.7353177516794133e-01  -6.1708993005378028e-02 4.9515202617163234e-01 -2.0606209269812734e-01  -1.1800903077165997e-01 4.7684575767243192e-01 -1.6729678450321467e-01  -2.9439351272146663e-01 9.5201312236766117e-02 -4.5035125590816050e-01  -3.2291992008210874e-01 1.5878176360775623e-01 -3.8121059453433898e-01  -2.5138630360096070e-01 2.5654952052122421e-01 -4.0676132348172933e-01  1.2943879162503238e-01 4.5926080046134971e-01 -6.3025869482681560e-02  -4.0663382507633422e-01 -2.6067517970025761e-01 -5.6175740332113491e-02  3.9558554570711019e-01 1.2285348943670010e-01 -3.0894395901064764e-01  4.0470861544835918e-01 3.1928290770028581e-02 -3.2620889755007848e-01  3.6343495891916899e-01 1.3053853961382803e-01 -3.6717163146162007e-01  1.2691569946690862e-01 -3.5837829793056447e-01 -4.0954641803286707e-01  2.4984384558997411e-01 -3.0075051136214453e-01 -3.4545188704283952e-01  1.5471095931932330e-01 -3.7380956051790692e-01 -3.3457515465648413e-01  2.4986340507292354e-01 -3.3061531241584291e-01 -2.8461828937359923e-01  4.2800950106452051e-01 3.9227352222007579e-02 -2.7572265879810820e-01  2.0892263315678300e-01 2.4496126176636596e-01 -4.7003958644164040e-01  2.3197485478029028e-01 3.2095901799628612e-01 -4.1393634695709469e-01  2.9968587515886452e-01 2.1987579844772112e-01 -4.1037875767901644e-01  2.8396291362602349e-01 3.7240499203520389e-01 -2.0761356789669447e-01  3.8601902756434453e-01 1.9977614932110388e-01 -1.7832911799488735e-01  -3.7208508494708253e-01 2.9091867731985441e-02 -3.6565070286595053e-01  -3.5837234275412461e-01 1.3156273144000385e-01 -3.1725045667470997e-01  1.2407001154851488e-01 4.8464322115947478e-01 -2.1010099216124389e-01  -3.5406333532580997e-01 -2.4037270241448840e-02 -4.3172412736509075e-01  -2.2108805128649289e-01 4.2063678116291908e-01 -1.7261449098140211e-01  -3.2867073324005192e-01 3.2632927438001980e-01 -1.5191864410857106e-01  -4.0126332012491572e-01 2.4715377692043522e-01 -9.3363756425575803e-02  1.9033713483164705e-01 -4.2587096357719401e-01 -3.6053965862642749e-02  -2.0687027457174750e-01 -3.3536021568390119e-02 -5.5289433233049390e-01  -2.4876018926783489e-01 -1.5436291776403252e-01 -5.3866322671599953e-01  -2.6662369532992669e-01 -2.1673002496597576e-02 -5.1361661550256299e-01  3.3804884258661549e-01 2.4292547225718358e-01 -3.4524515826105051e-01  -4.5260353626682359e-01 1.1081816527483287e-01 -1.1278492490090515e-01  -1.6625901814834915e-01 4.1997307982469673e-01 -2.9426753077000234e-01  -6.6017130591702847e-02 4.7099797202240923e-01 -3.0426583488862430e-01  -1.6568149579202299e-01 3.9540406959462188e-01 -3.5592414922558074e-01  -4.6468301689609964e-01 -3.0529856812101661e-02 -1.4533330788612045e-01  -4.4694823617092494e-01 -3.6866329535725099e-02 -2.2319755814845677e-01  3.6504267441917782e-01 -2.6490860123151677e-01 -1.3533896254396982e-01  1.2334510389673456e-01 -4.3711703404549995e-01 -1.3410633559655755e-01  2.4019267063933047e-01 -3.8328855589830346e-01 -9.6641293114788820e-02  -5.2221373946426321e-02 4.9204903217234386e-01 -2.5406664333432816e-01  4.2862637510425960e-01 -1.5587619776653105e-01 -1.8678783900752469e-01  4.0462577297910002e-02 -4.5695901083056167e-01 -1.9509099239935876e-01  -1.0873578333781077e-01 -4.8344650529165428e-01 -1.6166616673828721e-01  -5.2927144988222680e-02 -4.6171252742405888e-01 -2.5367951213640888e-01  -1.3999208098009602e-01 3.6143406955281054e-01 -4.1526609013074667e-01  -3.2089856143175643e-01 -8.4261040759548489e-02 -4.8506232875090088e-01  3.5865778436499746e-01 2.7223563934228623e-01 -2.2155904958470454e-01  2.5730668026748427e-01 4.0883913263386301e-01 -2.4567164117447596e-01  -4.0999030908171313e-01 2.0857123799773902e-01 -1.4281833288587381e-01  -1.7588519475476172e-01 4.3771597521142624e-01 -2.2774031216541765e-01  -6.6530343903910730e-02 -2.7880411796927679e-01 -5.5024147704920479e-01  -1.1006589893281055e-01 -3.6173826754145527e-01 -4.9653320139529211e-01  -1.8948558270514285e-01 -2.6808441720589765e-01 -5.3915524287087990e-01  -2.7814559871183520e-01 3.5258081943195613e-01 -2.1019429744003637e-01  4.5170135342602813e-01 -2.9604696077414748e-02 -2.0418864461213995e-01  -1.5813525362515221e-02 -4.8561104463400878e-01 -9.7956620917178411e-02  1.8577594536568726e-01 -3.9299011765182734e-01 -2.2243179588541592e-01  2.7353911516172336e-01 -3.4783913411345718e-01 -1.7402183071817673e-01  -2.5264747342763105e-01 3.4247942799972658e-01 -2.8172966797459981e-01  3.7619588699416068e-01 -2.4632838538977128e-01 -2.0422217807782594e-01  4.2338979058366288e-01 1.1503928685636107e-01 -2.1400874542378551e-01  4.4718861207612209e-01 3.8205820303893103e-03 -2.3457961371269742e-01  4.1116565709062397e-01 1.3633362014564609e-01 -2.4692671634572558e-01  4.0660222916769635e-02 4.8484328508158209e-01 -1.2053614056067501e-01  -2.4611238497248555e-01 -4.4766561066839378e-01 -1.4677224952142626e-01  -4.5075584538702668e-01 -1.4597193196856476e-01 -4.8828133010470405e-02  -3.5963260707666456e-01 2.5890774474229183e-01 -1.8885431434546732e-01  -4.1469320171303692e-01 2.6253869195220249e-03 -3.0010442386152669e-01  -3.9650509391942484e-01 -2.9052564267363418e-01 -1.1745749286623557e-01  -3.5345024732040170e-01 -3.6393542289817726e-01 -1.7600821324177571e-01  4.3032396098197778e-01 -1.3654171172023999e-01 -2.3080122389924390e-01  9.2545467064441292e-02 -4.1497827243852198e-01 -2.8889661401417349e-01  -4.3528681927735929e-01 1.0187543990562084e-01 -1.7112572570063758e-01  -2.4902219667101547e-01 -3.3160334283430393e-01 -4.8657607114576834e-01  -2.1433488296202109e-02 -4.4305216847776158e-01 -3.1564609132650490e-01  -1.4101505130235548e-01 -4.5106631429033756e-01 -3.4100250652383379e-01  1.9646736542036747e-02 -4.1845963948664550e-01 -3.6831284886135435e-01  -3.6490302848919781e-01 -3.2281168351872425e-01 -3.8432484766528496e-01  -3.0015853961769057e-01 -3.9884238592761756e-01 -3.4482975665076859e-01  -4.0686159356617624e-01 -2.8617254891401273e-01 -3.1077102188504374e-01  4.0076333559507754e-01 1.8389852182404776e-01 -2.0073956839829177e-01  2.4612502186525653e-01 3.0088362798011276e-02 -4.8556290939770980e-01  2.3170160851051866e-01 -9.8596028823347254e-02 -4.9387418069589734e-01  1.7049978188854720e-01 -2.5263249976385755e-02 -5.1247955661811695e-01  1.9785064450246978e-01 4.3631128285328918e-01 -3.0457494893229164e-01  9.1207294229264865e-02 4.9290412921060484e-01 -2.7539047087435581e-01  3.1206198374754135e-01 -4.4182814178162007e-02 -4.4397170670269059e-01  -2.7969390267136357e-01 -4.2380310660952508e-01 -2.4704571971935418e-01  -1.7282890718269167e-01 -4.6043267125586174e-01 -2.4209190563081723e-01  -3.2736468628391008e-01 2.5545405818220318e-01 -2.5777356425784037e-01  -3.8051810606039738e-01 1.5257345077712386e-01 -2.5689276725162491e-01  -4.1283656457016460e-01 9.4149122368789417e-02 -2.2626452717264728e-01  2.8725090729058589e-01 -3.2578983085568486e-01 -2.2748238234046592e-01  -3.5456950065340620e-01 -3.6296888396631533e-01 -2.6722086249844873e-01  -9.1102447424327868e-02 4.6103566872723031e-02 -5.6796562284794438e-01  -5.5718895432007849e-04 1.2060418021943098e-01 -5.4205332410145779e-01  2.0779122024973645e-02 -5.0369134345077032e-02 -5.6908506059092356e-01  -5.2862573420662397e-02 3.5926638050334725e-01 -4.6075477447422825e-01  -1.6010628583621830e-01 2.5023772737726918e-01 -4.8701877885418837e-01  -9.4019021928225269e-02 2.5264193296976334e-01 -5.1590126461379560e-01  -3.3855956445935065e-01 -2.9312514484371910e-01 -4.4892520956370813e-01  -2.8461318386014806e-01 -3.7150264183277826e-01 -4.2824875100135262e-01  3.4277669348516138e-01 2.8901232160862844e-01 -2.5592207812630824e-01  -6.2751928435585400e-02 1.8940896921754286e-01 -5.4465363492726981e-01  1.1236733796003665e-01 3.2346878770822529e-01 -4.7905985901976539e-01  1.8524405979456407e-01 4.6898274388781885e-01 -2.3392898614085869e-01  -1.9382521747278664e-01 -3.9239590965342175e-01 -4.5240143697677043e-01  -2.1273597844335812e-01 -4.1815799403246567e-01 -4.0370130650889130e-01  -4.1154641867227164e-03 -3.9482376195174779e-01 -4.4034177334547248e-01  -1.0679353820254460e-01 -4.2250672783276799e-01 -4.2120324452171720e-01  3.5519310841543905e-01 -2.4678424354915898e-01 -2.5171846029843936e-01  3.6203076654382599e-01 -2.1037886173586759e-01 -2.9480082322336487e-01  -4.0440866083276121e-02 4.6022472664134190e-01 -3.4712755217597835e-01  4.1121285764744629e-02 -3.3746219333706956e-01 -4.9279232410792484e-01  -3.1113202056561312e-01 2.3168226148865939e-01 -3.2556653597669039e-01  3.2130414151354303e-01 -2.0789029912734999e-01 -3.6311934268165658e-01  3.9790181898181060e-01 -9.2501869006388321e-02 -3.2014942340549218e-01  5.4352718027673538e-02 2.4717398448913858e-01 -5.1912837624712760e-01  3.8454919678677180e-01 2.1801122802101383e-01 -2.3601257089729061e-01  2.2890295478892519e-01 3.7908344943248745e-01 -3.6252662143831366e-01  9.6878396592449997e-02 3.9546938464724957e-01 -4.3081426603896494e-01  8.4503742167057666e-02 -2.4186331714630929e-01 -5.3551059878390528e-01  1.8881379856601171e-01 -2.0497543939655305e-01 -5.0114062629515932e-01  1.6136265740270150e-01 -2.8770306934901069e-01 -4.6873563192494777e-01  2.9851370225771440e-01 3.3621317940368689e-01 -3.0928129576204583e-01  1.2442625167284019e-01 -1.3658738253319366e-01 -5.4769703413255821e-01  1.3722815622424284e-01 4.7081545254496254e-01 -1.8196029435690703e-01  -2.5441198159776884e-01 3.0501127450103549e-01 -3.4893393532256739e-01  -3.0149654599793896e-01 -2.2176559507668817e-01 -5.0051227882159677e-01  -3.6791463973586874e-01 -1.7232610654194483e-01 -4.5051887014856967e-01  -2.2968735248058050e-01 2.1292611969640113e-01 -4.5768364047257187e-01  -2.3185949543952966e-01 1.1262724557261754e-01 -5.0608612263798469e-01  -2.2278671695103264e-01 -4.3881648698852982e-01 -2.9544986912992727e-01  3.7675838359362956e-01 2.0466167660046727e-01 -2.8603926126523854e-01  5.8313972196025077e-02 5.0640040346938997e-01 -2.3595852787552149e-01  2.3276146429299616e-01 -2.7799108291481228e-01 -4.0915439731862541e-01  2.6930718040569995e-01 -1.8464799831450027e-01 -4.4198977911422849e-01  4.2942126388758595e-01 -8.2712814090091916e-02 -2.6579235998245704e-01  2.9131056100582279e-03 4.3175426322573712e-01 -3.9481277216493887e-01  -1.7536724525114318e-04 3.1722717286175545e-01 -5.0044553714310724e-01  -1.3421653003175674e-01 -1.7285150724962375e-01 -5.7803818369136817e-01  -1.4600299803603131e-01 -2.7990289259866557e-02 -5.7631190650362751e-01  -1.6058035196183665e-01 1.2687673768655983e-01 -5.4744876877621840e-01  2.2136781984278564e-01 1.3431292287306354e-01 -4.8167290167219173e-01  1.1090477265456002e-01 1.8067412972213151e-01 -5.1687269007741232e-01  1.0985348576770064e-01 8.2442504387245541e-02 -5.1239798337886711e-01  3.4401625931712071e-01 -1.1172667590183449e-01 -3.9168277442452104e-01  -7.5124962260765038e-02 -8.3593421007287866e-02 -5.9029525366892099e-01  -7.8188564002146053e-03 -1.7616404934208205e-01 -5.7868950210101078e-01  2.7591678620458210e-01 3.7472423712959002e-01 -2.7734290758287183e-01  7.8810286740982727e-02 4.6789631851381708e-01 -3.3072592864923095e-01  3.7151161588697112e-01 3.2524427536912120e-04 -3.8115061262021094e-01  3.0665741300614030e-01 1.1394461002789198e-01 -4.3278006756923537e-01  1.1977571656867918e-01 4.3859297132899849e-01 -3.6728409240485277e-01  1.3582573062384623e-01 -1.9769157224631001e-01 -5.5191587231093721e-02  8.5258145981204805e-02 -2.3928084773854483e-01 -6.9710786830960172e-02  -2.3909638902252264e-01 -1.5770288756457629e-01 -6.4074346636117163e-02  1.8824584725257426e-01 -1.1955616607256989e-01 -1.4785648692370645e-01  1.3822076540146552e-01 -1.9227338039837708e-01 -1.3824507699532140e-01  1.6005002381378772e-01 -1.6332381280277761e-01 -1.8781608461917465e-01  1.0432389600924880e-01 -2.1123790276211404e-01 -1.7038574784503738e-01  -8.1040149569808040e-02 8.2241681791860463e-02 -4.2367615371625716e-01  -4.7112809633935895e-02 5.0564369946552681e-02 -4.4756479407456595e-01  -8.0821707531044590e-02 2.4962350988818841e-02 -4.3390898434176206e-01  -9.0677710826484931e-02 -1.5558466054674180e-01 -4.4758180651191648e-01  -3.6607084616953105e-02 -1.8059081482376169e-01 -4.5154166373215648e-01  -8.3633664412559164e-02 -1.8783029599449474e-01 -4.2954899315213668e-01  -2.0388382834596003e-02 -1.4319977162655251e-01 -4.7475950207712925e-01  -5.8478983037651517e-03 -2.6636664380688102e-01 -1.2903429977154410e-01  2.9161316571460899e-02 -2.6612235000539869e-01 -6.8294316827608711e-02  -2.4533766044440016e-02 -2.7716465383333660e-01 -6.5131623743758013e-02  -4.2557268870222514e-02 6.7169769202454635e-03 -4.5553033021806372e-01  1.9484188105705288e-01 1.7009914760136324e-01 -7.8106751740967054e-02  1.7836376550559788e-01 1.5769615575227738e-01 -1.0788056649663116e-01  1.4483140443452155e-01 2.0663420565103682e-01 -1.1798735270552560e-01  -1.6953493660047803e-01 1.0305179643958252e-01 -2.3644055226852778e-01  -1.7894489293928897e-01 9.9179357586301364e-02 -2.0350323711587578e-01  -1.5589837348798979e-01 1.3273723742140647e-01 -2.1279308425700802e-01  -2.2782811668482086e-01 1.3759096967763396e-01 -8.1216993013050354e-02  -1.8784955507429091e-01 7.1739867162708804e-02 -2.4007787847433576e-01  -3.8521337920267032e-02 -1.0630907019567999e-01 -4.7861577591239429e-01  -8.6374655711822998e-02 -1.1986159043514488e-01 -4.5920197788163092e-01  -8.6544401846268312e-02 -6.2984584872406046e-02 -4.5939878025043518e-01  2.0480772604105124e-01 2.8816065213518857e-02 -4.9947408928681734e-02  1.9832781287864851e-01 2.7430329632502012e-02 -8.7761835844419239e-02  2.0547521801181737e-01 6.7053926103890063e-02 -7.0538271364069025e-02  -9.9016479516187694e-02 -2.5751422652667083e-0