<?xml version="1.0"?>
<VTKFile type="UnstructuredGrid"  version="0.1"  >
<UnstructuredGrid>
<Piece  NumberOfPoints="670" NumberOfCells="2005">
<Points>
<DataArray  type="Float64"  NumberOfComponents="3"  format="ascii">0.02844055898791061 2.431995938469298 -1.318547481906489e-15  0.2337147056671454 2.993878829513227 -1.325407233778419e-15  -0.6708236124945777 2.492322346895252 -1.318610761016981e-15  -1.309823236433126 2.252922420328659 -1.326494786927343e-15  -1.798993847167182 1.773942914132789 -8.968801516863758e-16  -2.098175001856407 1.15258915264426 -8.699701763828092e-16  -2.170567818377088 0.4717386362546322 -4.235995229187725e-16  -2.052768688042575 -0.1989750199814469 -4.316193467171668e-16  -1.706270352582333 -0.7783361082590038 1.414228394303186e-18  -1.197945454693281 -1.223868653257273 1.679264260234774e-18  -0.5662844126501262 -1.472904475615103 -2.372762016725086e-18  0.1155595754976292 -1.511099971278201 -9.946913229821345e-18  0.7856073526448317 -1.362550982104314 -3.734923936042918e-18  1.368339167428322 -1.004736911267542 7.100197851427259e-18  1.822180188100356 -0.5002064098259327 7.408445403460469e-18  2.056678948609666 0.1321474309435286 -4.462089489199172e-16  2.062129872596085 0.7957927197195548 -4.380960979426701e-16  1.786364402759941 1.398114511392025 -8.885342476477847e-16  1.311733380661387 1.878939993391295 -8.804266978899401e-16  0.7038882361884704 2.227256094601489 -1.303786459505119e-15  -0.49093531077224 3.042769259906254 -1.30910562465714e-15  -1.216694525318873 2.922801974109819 -1.31827699169456e-15  -1.875259439052824 2.586924245303862 -1.319970286482283e-15  -2.410836371319617 2.072253605750925 -8.403351197398684e-16  -2.781611526821199 1.435251466797045 -8.496884848892005e-16  -2.97997858395638 0.7209735775729866 -4.335809854522158e-16  -2.992443271605315 -0.01408937502804582 -4.057181986247961e-16  -2.806518365570947 -0.7279622960971988 3.309182017274817e-18  -2.450192764055068 -1.372366808893545 -2.857875849869865e-17  -1.946700211998916 -1.907383704628001 1.783714505388091e-17  -1.325815878506946 -2.30272051648248 1.046357930189234e-17  -0.6148866836586043 -2.512477724402324 9.795257400770175e-18  0.1184947713916496 -2.539883942618737 1.929382869523668e-17  0.8389569189193756 -2.403452633906688 1.592358128700247e-17  1.510098259966479 -2.108416492641256 4.358545568586597e-18  2.098128823808454 -1.672826918517211 2.479464447021049e-17  2.576009187462005 -1.118663609138099 2.647231510812143e-17  2.92500487905367 -0.4703423159257293 -4.408937082695224e-16  3.123682695121084 0.2483141613549767 -4.495402236389513e-16  3.112648997691337 1.001166349612774 -8.766129227323279e-16  2.823126299851078 1.702958659540147 -8.783508043871984e-16  2.311761187990262 2.262463216136412 -1.346683773437876e-15  1.662717102976748 2.644591523091852 -1.322322817422875e-15  0.9568624907364101 2.867300995485199 -1.364289713792337e-15  -0.09432444599344936 -2.055630682921302 -1.190253273595806  0.4435165586951906 -1.758278049354908 -0.6715544872671996  -0.2404851454294637 -1.767223210860368 -0.5448705498602054  0.4900840382398647 -2.038438754692381 -1.296697420933637  -1.385238786417892 1.905801806794254 -1.707461993283658  -1.665930942804766 1.677775808654031 -2.601985269792208  -2.003622289953465 1.424579586646343 -1.760573344217752  -2.162920222454551 1.274603576142926 -2.496936633713962  2.517944354590412 -0.5857010758685657 -1.957311388093166  2.656145467311404 -0.06505086457633912 -2.322753991805832  2.613135246905911 0.0763870626072734 -1.801865042971098  2.063178221335674 1.424110457710875 -0.8141990517625521  2.169957418103321 1.06102892055651 -0.5067348550906078  0.2820857857656699 2.418210623454104 -0.5614296588277708  0.789963670947577 2.269231294899331 -0.7333531123806816  -2.14732322476033 -0.597949523736541 -0.5386140906066724  -2.4241392046564 -0.214128552217475 -0.8643806925630813  -2.337859408514004 -0.8219355241123946 -1.221213869040538  -0.7501332449392198 -2.197725371529706 -2.064565585983377  -0.1019172102552463 -2.330082864451837 -2.222318573230344  -0.3816233509184876 -2.211660284416261 -1.664829175561185  2.455627572504564 -0.3428539172516019 -1.343793186017225  1.658218133789324 1.765718657799894 -0.5110011212461893  2.171055850769679 -1.076984244547242 -1.568891892987907  -1.095948213476201 2.387511629944639 -0.5719553326396435  -1.757600906304244 1.921156748732424 -0.4899613828153613  0.8927191881572417 -2.153748804669195 -1.862771193909061  0.9871368486771029 -1.817546942788616 -1.162990529795075  -0.5714628295369215 -2.27692976958001 -2.798689503853835  1.739188695400907 1.783046248476113 -1.236529831691298  1.282663770594279 2.058027410972088 -0.9638370719680103  2.622277620725309 0.3884975818043703 -2.245809257511729  -0.5623787258701868 2.184640818460748 -1.646865634888514  -1.056357395971128 1.92958353870193 -2.23098274939637  -2.122858944384948 1.392338519201338 -0.6519843889981649  2.492636706425798 0.7956477592120526 -2.446748321817024  2.670553591491455 0.2064103325979988 -2.904178679570331  2.385897568229499 0.8570174329602576 -3.280392384096665  2.035180204601517 -1.529362944570372 -2.232424157147263  1.797543897028743 -1.598410203548031 -1.727217203074212  1.504022017877353 -1.983170261290256 -2.274724438023263  1.37905192314309 -1.851918936108921 -1.621046872726237  1.524173617519916 -2.068854843125637 -3.120384656739562  1.067187663527309 -2.23224428260071 -2.573532544708603  0.700366781502145 -2.3592422973408 -3.110582139118184  0.1568737867165232 2.322811295485035 -1.241302191261009  0.7377899717507074 2.188922693628781 -1.436893570453197  0.4930834421998134 -2.339614882778904 -2.36089285585121  2.499123278328588 -1.000271594208325 -3.314190708926677  2.228787434559879 -1.428372224267058 -2.813221536511166  2.068132906769471 -1.637011925410564 -3.309199712177366  2.416710780208804 -1.030004114644555 -2.418764011787989  2.529032868100361 -0.4529598993089429 -4.973314828431375  2.647827976877312 -0.3764855742752284 -4.058574867676418  2.46689511706071 -0.9411958899306677 -4.251095907369104  -0.07212027346298003 1.841887710116413 -5.455130889941747  -0.3327440497673471 1.890627434301107 -4.955108321314875  0.2514202981788277 1.909711241249753 -4.907109949318381  -1.925145461069922 -1.38742300477647 -1.181575292216192  -1.64330915031592 -1.756156808997123 -1.815752920243355  -1.326773909319401 -1.773765031348957 -1.120844365527291  -1.079069396521825 -2.03715028033578 -1.675485660320601  -1.554051685023528 -1.333655636459349 -0.5728688840121434  -1.967665247880725 -1.013504987453146 -0.6917807081604103  1.560634942484619 -1.436809482113221 -1.060252103169405  1.572414010689001 -1.089110338543255 -0.4943712334660541  1.048636191078214 -1.494346737458923 -0.579324248672904  2.008657424002855 -0.8412944318245101 -0.8751487343039939  1.351954243551231 1.943564427346003 -1.805158784999839  0.6678960661624682 2.043682058426833 -2.217349590105559  2.321143866408292 0.5662886379355025 -0.5925994649327885  -0.4944090028524619 2.023632239339595 -2.489043678248079  2.533463553600196 0.3440278430993801 -1.196520311205423  -0.9905968924138714 2.2586280307302 -1.196065557432276  -1.408548937776771 2.117764290864182 -1.016010260851464  -1.864894621065295 1.720305562768994 -1.131306494004189  -0.1811191762986588 1.96782217881802 -4.162881081033581  1.073605044175058 -2.189025648450809 -4.27936957515533  0.5300475270137291 -2.142933463472387 -4.712199091661086  1.165733435911088 -1.963152892946698 -4.879503907842823  2.538966636413941 0.6967864185114414 -1.666395538307475  2.314388086305457 -0.06937510782373225 -0.7055899263299179  -1.298225791521039 -1.984752835988055 -2.445793885684587  2.385008977500727 0.9641827803152043 -1.066615091536599  -2.460404466713224 0.8743168570474558 -2.955038835711894  -2.474887278809895 0.7448359449380995 -2.084661465815897  -1.427790947737613 1.716087040660572 -4.332617247855206  -0.8510940388978623 1.841508682699651 -4.695044847050793  -1.344151479530338 1.517454622567846 -5.161692835968145  -1.920649328571949 -1.528346155898169 -2.46210746257346  -2.397051649296539 0.3255849985879853 -0.6579546839734466  -2.302779790227779 0.8371067016588908 -0.5433742602790567  -2.320793210025091 0.9917290917437152 -1.124687868410714  -0.3398131260355845 2.017452374761328 -3.372663347277206  -1.102317173252958 1.932316815733187 -3.064776720922141  0.1138507825180709 2.153645449568462 -1.881849327511093  -2.558443999152264 0.2293761394959158 -1.390564343896705  -0.3901135601237362 2.468930749896097 -0.7943236873577867  2.227371115229018 1.327908980665251 -1.49023084185459  2.306703268999977 1.176007033622321 -2.020265972430343  1.929367646534982 1.576122092065975 -2.021476551093753  2.155257769825309 1.245259251304913 -2.610061449671923  1.622241653097639 1.622085413299997 -2.743793047647733  -2.588209786079277 0.3926690550580386 -2.73644569693917  -2.618102926969381 -0.07282563472499087 -2.227856653223202  -2.563771802387294 -0.299284587588706 -1.519939481252901  2.645001465082289 -0.4655628498241903 -2.713351624880732  0.06748380947506903 2.030824155947801 -2.613802110935523  1.336452247900081 1.67479436600676 -4.291225443778202  1.113677744809953 1.753179375254368 -3.448688680982087  1.693713107634169 1.480272769858792 -3.688338286633567  -2.539670627534476 0.3576310409570604 -3.507552187925018  -2.530451705463647 -0.1441765966365887 -3.114629741907371  0.5986655251514068 -2.341737447913611 -3.87712215646757  -0.929956206836333 -1.675886213520646 -0.5621103321156405  2.640020182562425 0.2143085165881023 -3.812623359916048  2.411726287123404 0.8020965950947538 -4.179212915968344  2.023868966698402 1.283980719351782 -3.13308118984866  0.09330390798773203 -2.388007063941663 -2.725549236338142  1.065184391948506 1.874116190115759 -2.666465148864722  -1.898493635879843 0.9881480997207007 -5.119814336375461  -1.533833985228717 1.07476575640571 -5.644136915227222  -1.737472658550256 0.5445466818451861 -5.727402101169324  0.4611310292614766 1.942936540741
[...]
<PointData  Vectors="f_1734634-0"> 
<DataArray  type="Float64"  Name="f_1734634-0"  NumberOfComponents="3" format="ascii">5.6873581927551028e-02 5.0136590579162965e-01 0.0000000000000000e+00  2.7048151120050386e-02 4.1095285384184621e-01 0.0000000000000000e+00  -4.7525356870472282e-02 4.6271348058296580e-01 0.0000000000000000e+00  -1.4820583416656208e-01 3.8675179876414600e-01 0.0000000000000000e+00  -2.3074680080876270e-01 2.9411478161081339e-01 0.0000000000000000e+00  -2.9257953119761343e-01 1.8768251915432627e-01 0.0000000000000000e+00  -3.2923946031442858e-01 5.9241711401076674e-02 0.0000000000000000e+00  -3.3668442653511788e-01 -7.8933524292904109e-02 0.0000000000000000e+00  -3.1105779659008082e-01 -2.2305170602861182e-01 0.0000000000000000e+00  -2.5274728758284654e-01 -3.5676637865964023e-01 0.0000000000000000e+00  -1.5574739743027119e-01 -4.5597109586788920e-01 0.0000000000000000e+00  -4.1022685451774774e-02 -4.9736453419137394e-01 0.0000000000000000e+00  7.3518745572760100e-02 -4.7267643186925751e-01 0.0000000000000000e+00  1.6667158585972883e-01 -3.9373510861644245e-01 0.0000000000000000e+00  2.2446254336171348e-01 -2.6971402735523381e-01 0.0000000000000000e+00  2.4678759744352605e-01 -1.2555635713209065e-01 0.0000000000000000e+00  2.4804984120651369e-01 3.0093170012741744e-02 0.0000000000000000e+00  2.3924071844351774e-01 1.9274967992333475e-01 0.0000000000000000e+00  2.0410380183554833e-01 3.4869256239568158e-01 0.0000000000000000e+00  1.4565482028039564e-01 4.5974783063602270e-01 0.0000000000000000e+00  -6.6394192360553939e-02 3.8568734404499722e-01 0.0000000000000000e+00  -1.2774776072458674e-01 3.1447917613399373e-01 0.0000000000000000e+00  -1.6398323199105791e-01 2.4102872758260818e-01 0.0000000000000000e+00  -1.8677085499423085e-01 1.7553946218577843e-01 0.0000000000000000e+00  -2.0652620139909567e-01 1.0497158462021861e-01 0.0000000000000000e+00  -2.1571741751545920e-01 4.0539607684531756e-02 0.0000000000000000e+00  -2.2530096705315084e-01 -2.7456350080794743e-02 0.0000000000000000e+00  -2.2776402944297736e-01 -9.6039227180824596e-02 0.0000000000000000e+00  -2.2210485787796733e-01 -1.6877950081145665e-01 0.0000000000000000e+00  -1.9871709519439609e-01 -2.4665863918131120e-01 0.0000000000000000e+00  -1.5337201041793921e-01 -3.1321730566975214e-01 0.0000000000000000e+00  -9.6834309796655610e-02 -3.6422771335513932e-01 0.0000000000000000e+00  -1.8570800368732276e-02 -3.8554388702493098e-01 0.0000000000000000e+00  5.7706335727726564e-02 -3.7088730974886580e-01 0.0000000000000000e+00  1.2040798933718812e-01 -3.2243242938360200e-01 0.0000000000000000e+00  1.5995364686447108e-01 -2.4714470057523447e-01 0.0000000000000000e+00  1.7378601213624678e-01 -1.5852815318319630e-01 0.0000000000000000e+00  1.5841695673219938e-01 -7.2966901188278407e-02 0.0000000000000000e+00  1.3103179709448073e-01 -8.5641866931426645e-03 0.0000000000000000e+00  1.1667047181084729e-01 3.8668033684109142e-02 0.0000000000000000e+00  1.2648458289470563e-01 8.3632185181219773e-02 0.0000000000000000e+00  1.4746090693145272e-01 1.5868311821183723e-01 0.0000000000000000e+00  1.4767694069479828e-01 2.6112938976833072e-01 0.0000000000000000e+00  1.0450978421259695e-01 3.6360201381568874e-01 0.0000000000000000e+00  -5.0798423585762413e-02 -4.7542783869654309e-01 -1.2765867482331668e-02  3.3158738469186128e-02 -4.8884596358027921e-01 1.5642116159119038e-02  -7.6697060472038503e-02 -4.9141502235799051e-01 1.5999424398354022e-02  3.0571086731268276e-02 -4.6468562846440636e-01 -1.6019411303298675e-02  -1.5860017123879844e-01 3.7048959687683342e-01 -1.1134474200206844e-01  -1.7062614157706577e-01 3.2239447018897693e-01 -1.3710931873669391e-01  -2.2069932783469479e-01 2.4765468596512796e-01 -9.3767125825526376e-02  -2.1521375608000354e-01 2.1002316412883626e-01 -1.2741447193027616e-01  2.5953568748250311e-01 -1.3217963997210694e-01 -6.5332877043726034e-02  2.6415642793394467e-01 -2.3261113274673197e-02 -9.5625321634059221e-02  2.5726032399267496e-01 -2.7934818501355686e-02 -6.3356584996572873e-02  2.2097717430730954e-01 2.0052860913957654e-01 -2.3414606784287643e-02  2.4043356765914600e-01 1.1222467691913114e-01 2.8837870697505535e-03  6.6978563441566413e-02 4.9321981016010080e-01 -3.7795030658946301e-02  1.2338778686623417e-01 4.5654639026680932e-01 -4.3112502186239625e-02  -3.1658389220714384e-01 -1.5529495489065001e-01 1.0346222487750712e-02  -3.0761168081267964e-01 -6.1780894163890286e-02 -1.6866668329027688e-02  -2.9151443417145900e-01 -1.6061800615839766e-01 -4.1136382374914751e-02  -1.4148509963928443e-01 -4.2970499286524877e-01 -1.0439897004461404e-01  -6.2245232696363097e-02 -4.5019271445841075e-01 -1.0831625668548830e-01  -9.2636210807865105e-02 -4.5152670055560179e-01 -6.1083135123782689e-02  2.5487611055654613e-01 -1.2767733493843922e-01 -2.5658842829950432e-02  2.0698515386800592e-01 2.9720380374819422e-01 -1.2067463324284307e-02  2.3631169101738864e-01 -2.4573442882070426e-01 -3.2782556080880272e-02  -1.2291674807171293e-01 4.0255597160964834e-01 -3.9580814606076320e-02  -2.1519551483556326e-01 2.9760489156502329e-01 -2.7033002129290138e-02  7.2419056566613321e-02 -4.2638519806406960e-01 -6.3225598890111090e-02  1.0403936860995341e-01 -4.3902427163565810e-01 -1.8817132825767898e-03  -1.2910386584840344e-01 -4.3585197293102540e-01 -1.6675640051977647e-01  1.9399197726537470e-01 3.1306008050923895e-01 -6.3046304558030605e-02  1.6429661209812027e-01 3.9325495873328642e-01 -5.1547538884494377e-02  2.5440776117199115e-01 5.3680801033646121e-02 -9.8464895212151612e-02  -6.0548112814192520e-02 4.7648666164740766e-01 -1.2215916238950388e-01  -1.1498762792554686e-01 4.2934417250259033e-01 -1.3707505631881797e-01  -2.6312581303682292e-01 2.0641565516618995e-01 -2.7767333263283459e-02  2.4673559753474092e-01 1.4237448561482452e-01 -1.2065619385436380e-01  2.6527690255780523e-01 5.1428102250753047e-02 -1.3430344749483972e-01  2.5299402016945516e-01 1.9516049595147705e-01 -1.6388620143965402e-01  2.1376153072666981e-01 -2.8115673126507268e-01 -8.4377806974714989e-02  1.9097250135839203e-01 -3.2642531640836620e-01 -4.5743666893647915e-02  1.4640704989945508e-01 -3.6215484505457890e-01 -9.4008330316740260e-02  1.4090937556091665e-01 -3.8780315788161118e-01 -3.8779668362001189e-02  1.4687276565829144e-01 -3.4421378422605281e-01 -1.5969174340491912e-01  8.8602303641439978e-02 -3.9944842671347019e-01 -1.2355591867688771e-01  3.9248507559034584e-02 -4.1355766615896311e-01 -1.7086590452407102e-01  3.6308505683901642e-02 5.0043960084494676e-01 -9.3372346663218281e-02  9.9585467752755924e-02 4.7695178460063720e-01 -1.0082629592878822e-01  1.4628260884263779e-02 -4.3751376241716761e-01 -1.1227917791859578e-01  2.6424660484274348e-01 -1.4600922914435677e-01 -1.5690285181681018e-01  2.3399026539797174e-01 -2.3469530083390100e-01 -1.2693465333784396e-01  2.1754975802911389e-01 -2.5695889322702320e-01 -1.6440448612797279e-01  2.5366939484489409e-01 -1.8433344355815895e-01 -9.6095589389332325e-02  2.7317012490122150e-01 -4.6937523233554733e-02 -2.3857421109236002e-01  2.7917009712204699e-01 -2.8165875628629461e-02 -1.9337216852346625e-01  2.6618069214609830e-01 -1.2370393191963998e-01 -2.1272392376565619e-01  -2.0070004845037424e-02 3.7407708622882002e-01 -3.1039915299258652e-01  -3.5767761871603056e-02 4.0178357027213779e-01 -2.7815825620580126e-01  3.2145727334774478e-02 4.4257264014796777e-01 -2.7188324620863513e-01  -2.6658541093038435e-01 -2.7364605636796169e-01 -3.5314465591478612e-02  -2.3554186625234613e-01 -3.3652789721559362e-01 -9.1998579191991836e-02  -2.1177420730075033e-01 -3.7906338056079758e-01 -2.4675354111251525e-02  -1.7790211284555871e-01 -4.0558799911438442e-01 -7.2064872538583971e-02  -2.6138507767435187e-01 -3.2950356830325078e-01 1.3680877886981958e-02  -2.9482540728743845e-01 -2.3544548815719626e-01 2.9835411145245814e-03  1.8133397109944013e-01 -3.6730262838123212e-01 1.7363748222827232e-03  1.9984667395084829e-01 -3.5752284528171757e-01 1.7074159652184201e-02  1.2726789995757770e-01 -4.4326266727201968e-01 1.8115736993876426e-02  2.3747272888390397e-01 -2.6120522770626475e-01 7.5013085353340088e-03  1.5651012617800641e-01 4.0840104365274332e-01 -1.1618611160862734e-01  8.7062510388555864e-02 4.9754971496883516e-01 -1.5027179292855725e-01  2.4826275351581889e-01 6.2169693920096020e-03 2.3557680276634998e-03  -4.7436821674228268e-02 4.9058526963285431e-01 -1.5449855646341867e-01  2.4679701060766918e-01 -1.0318677486176205e-02 -2.8334161609130683e-02  -1.1333752279127944e-01 4.2190180375288144e-01 -8.9485449454582547e-02  -1.6631618596728751e-01 3.6051998009732483e-01 -7.0570394698269936e-02  -2.1591241220323334e-01 2.7635324889466101e-01 -6.6995087236818643e-02  -1.4673302724733969e-03 4.7125461193410428e-01 -2.3217275253505507e-01  8.9114581548321414e-02 -3.5364298077698819e-01 -2.5360479673341485e-01  1.5515926286109080e-02 -3.8140314646030821e-01 -2.9912700437123052e-01  1.0705341273558584e-01 -3.2955217727324104e-01 -2.9319461951450160e-01  2.4073638165453112e-01 7.7988244569586695e-02 -6.6179693010169280e-02  2.5304080757467395e-01 -1.1428655054799197e-01 5.1124462915726546e-03  -2.0864272145355905e-01 -3.8662532639207875e-01 -1.4764993111204536e-01  2.3260151256319045e-01 1.0180627590306923e-01 -3.0594298610723342e-02  -2.3174604006786792e-01 1.0523281218327389e-01 -1.5659955993202057e-01  -2.5092658327205497e-01 1.0959932643434683e-01 -1.0522842261224681e-01  -1.3524499747494700e-01 2.9048176894933503e-01 -2.3995735964608120e-01  -8.4678862462737245e-02 3.6169380307408378e-01 -2.6330574174804977e-01  -1.3722125613633016e-01 2.2559464544898650e-01 -2.8887498826678915e-01  -2.6641048076355722e-01 -2.9716752052421674e-01 -1.5553477778888120e-01  -3.1039894465937090e-01 2.8060082833567101e-02 -8.9770322531192593e-03  -3.0095368293952501e-01 1.1183546039135110e-01 -1.0750511983481615e-02  -2.6974887834533634e-01 1.4683335641343673e-01 -4.9175903039912587e-02  -1.7289789222654211e-02 4.9065819539197081e-01 -1.9178241452435676e-01  -1.0591585688349209e-01 4.1281676790999078e-01 -1.6698212144192578e-01  2.2871285788698330e-02 5.1271702512520079e-01 -1.3536238401254641e-01  -2.8397215950567506e-01 2.3444600975549332e-02 -5.8762421802751715e-02  -2.6979931920527726e-02 4.7738825847902011e-01 -5.8363761476348842e-02  2.1929473933832566e-01 1.9848132295674448e-01 -6.8147825720746930e-02  2.2665624315937119e-01 1.9708440919751150e-01 -1.0258476537590931e-01  2.0292080834557899e-01 3.0120310469862438e-01 -1.1654569493828161e-01  2.2702373527279465e-01 2.5787524843079779e-01 -1.4281274574370367e-01  1.8838576729488235e-01 3.8256880075968996e-01 -1.6502599849112848e-01  -2.5841804440007626e-01 2.5650014992396390e-02 -1.5105045198726305e-01  -2.7810830171567791e-01 -3.7232224490447767e-02 -1.2496596413926238e-01  -2.8747623212120166e-01 -6.3650543723017067e-02 -6.9384650490756761e-02  2.6970123102774751e-01 -7.5654224707507364e-02 -1.1628228217660626e-01  2.1573267531326060e-02 5.1799010984120653e-01 -1.6648069735835530e-01  1.6588952561220494e-01 4.1956250489880997e-01 -2.2485661397181733e-01  1.4550733192485493e-01 4.6283521930856591e-01 -1.9758144066363006e-01  2.0336305724219206e-01 3.7287776151883179e-01 -1.9645626023542279e-01  -2.5195593086121215e-01 -8.7862016874555825e-03 -2.0329086980645400e-01  -2.8283326014874777e-01 -8.4158041352505472e-02 -1.9092084828754055e-01  2.3084521105347075e-02 -3.9898318087853457e-01 -2.3259150376165719e-01  -1.8181376853384990e-01 -4.3029408665988828e-01 1.1824757284426248e-02  2.7418020608738208e-01 7.4302614707839609e-02 -1.7927808083135183e-01  2.5866138199588112e-01 1.8632255414066692e-01 -2.0009448522474826e-01  2.2593335899133790e-01 3.0001486975251851e-01 -1.6882427199326597e-01  -4.0980104845123266e-02 -4.4148392681213694e-01 -1.4907693398349697e-01  1.3431208136337075e-01 4.6602419059184724e-01 -1.6916724604215280e-01  -1.7843519005389857e-01 8.1725275170764292e-02 -2.8757068565686322e-01  -1.5788059231993343e-01 1.0514404010904632e-01 -3.1677435282626415e-01  -1.7995426754443172e-01 -3.0177953090089315e-03 -3.3083048561134915e-01  7.3234145099769582e-02 5.1422684253782514e-01 -1.8529312087375110e-01  -1.4405644078089713e-01 5.9128774802585847e-02 -3.5391232404755657e-01  -2.9376553402424088e-01 -1.8153906388013499e-01 -1.6832564895152771e-01  -2.4814381111844858e-01 -3.6140171911572411e-01 -2.0985574482781369e-01  -1.9794789802016952e-01 -4.0679070857976324e-01 -2.1675639826556806e-01  -1.3954862320379638e-01 -4.4489047051204961e-01 -1.1114235563263091e-02  -1.0817486891095985e-02 -4.5483210198310636e-01 -6.2747589817495161e-02  -1.9362326514225039e-01 1.9868989414972046e-01 -1.7395079704822836e-01  -2.8689995374492211e-01 -1.2952422296391608e-01 -1.0215602662125188e-01  2.3722850672588011e-01 2.7718342340719671e-01 -1.8986752406808013e-01  -5.2170944834603931e-02 -4.3339577335396851e-01 -2.0352120524941894e-01  2.7648119735989957e-01 -2.5236560341459637e-02 -1.5606957826441378e-01  -3.5136948849558702e-02 -3.3680375599905932e-01 -3.7737115518886621e-01  -3.4640543650639150e-02 -3.7625655109895295e-01 -3.5158631188969819e-01  -1.3487620660044897e-01 -3.6396627175567658e-01 -3.6898625648480221e-01  -8.8558220689682665e-02 3.9658465498062695e-01 -2.1684343921128402e-01  -2.9852453477983126e-01 -1.8853663607194490e-01 -2.3722451922972307e-01  -2.9034552226045029e-01 -2.8726580127650964e-01 -2.2895959175019265e-01  2.2511075303006850e-01 2.9836175830765127e-01 -2.2196932339561110e-01  -2.7770009729938938e-01 -2.2668873231935843e-01 -9.8320573446062043e-02  -2.8553682231042277e-01 -2.6078329225134367e-01 -2.9060627513905685e-01  -2.5108483863579001e-01 -3.5788202512069178e-01 -2.6874550233833000e-01  2.3154464593988616e-01 -2.1482037979041899e-01 -2.0893080421204541e-01  2.3183141533830787e-01 -1.8815736087863760e-01 -2.5502066482930380e-01  1.6929677495323017e-01 -2.8676695371503397e-01 -2.4958280606234179e-01  9.2143967379859901e-02 4.8106364475540631e-01 -2.3028632644865638e-01  2.5553254907104264e-02 -8.8132733383996090e-02 -3.9815191077456658e-01  -4.1387306319618976e-02 -7.8541259140099767e-02 -4.0945275745597881e-01  -9.4041390733125493e-03 -7.5171312720849169e-03 -3.9760004234780200e-01  1.3956542141764047e-01 3.4085644806355303e-01 -3.0195549502310615e-01  1.0879289280841131e-01 4.2749075122101615e-01 -2.6629770942869457e-01  1.8307243605593004e-01 3.4439183945958030e-01 -2.5958069238417442e-01  1.1366397673158184e-01 -3.5247322289804961e-01 -2.1294901734407132e-01  1.8005199370889022e-01 -2.9502020851251748e-01 -1.9750623490575289e-01  -1.8357992501298484e-01 -3.8682067775421991e-01 -3.1876711369027638e-01  -2.4726676952076207e-01 -3.3163940475367842e-01 -3.1660934439332983e-01  -2.0688978282438261e-01 -3.3504286577376236e-01 -3.5622312196079192e-01  -8.1375743706149264e-02 -4.1479349894001027e-01 -2.8005938613339076e-01  -1.3271681442818703e-01 -4.2806224784099273e-01 -2.2776282538123876e-01  -2.7571869169370700e-01 -1.4408534812418938e-01 -2.8315883651718232e-01  -2.7559752388015241e-01 -9.4342009667575569e-02 -2.3891996897938528e-01  -1.5375099126560079e-01 2.9588207262729743e-01 -1.9236505906729287e-01  -1.8396617233606682e-01 1.3539763799469140e-01 -2.3653904014418739e-01  -5.5022300511697785e-02 2.1460835384245183e-01 -3.7741912842572950e-01  1.1598174171154201e-02 3.0574882850996804e-01 -3.6094879967276861e-01  -1.7639562559414812e-03 2.3236603952593601e-01 -3.8207713761761325e-01  2.5152107888815756e-01 1.8663448865693133e-01 -2.3562727471369449e-01  1.9655889990805911e-01 -2.9671122198118621e-01 -1.2788480211908601e-01  2.6248646218679289e-01 7.9473096521912423e-02 -2.4982507761043593e-01  2.7503916520497701e-01 7.2728104278449376e-02 -2.1330455019751191e-01  -2.7157025470135043e-02 -1.6474577918586250e-01 -4.0797578748135938e-01  6.2703438876146614e-02 5.0756044450580995e-01 -2.0758252252803733e-01  -1.8049097504206435e-01 -4.0700087070589358e-01 -2.6921372098623680e-01  4.3868321037808251e-02 3.7768756526573893e-01 -3.2044407184716556e-01  -2.4647750957222636e-01 -2.7429327762624145e-01 -3.4760127154244969e-01  -2.3424088226367534e-01 -1.0360992510270969e-02 -2.5126035113431838e-01  -2.1370313635829458e-01 7.9534062522444299e-02 -2.0504395895858543e-01  6.0807704094734835e-02 -3.3953212760950002e-01 -3.3778113076057714e-01  -2.2318119848261375e-01 -5.4351594675473777e-02 -3.0502191930847067e-01  1.8914614097624108e-01 1.9681169982808139e-01 -3.1157577154281652e-01  1.2871681633615897e-01 2.1582976453081867e-01 -3.5065053970668958e-01  1.4371168455991945e-01 2.7591477981666379e-01 -3.2670061234601810e-01  1.6357630329188602e-01 -2.6845733372922598e-01 -2.9937858544283108e-01  -8.5897283006738698e-02 2.9394152411482510e-01 -3.1668684197629982e-01  -1.0149992144357378e-01 1.9474111128063701e-01 -3.5641200970959414e-01  -1.2960680953894330e-01 1.7658608236903436e-01 -3.2792262867287547e-01  2.1137341199295062e-01 -1.9487864338005800e-01 -2.8864238465907660e-01  1.9006500966402570e-01 -1.8994892943104327e-01 -3.1162832340040481e-01  -3.7408152734492800e-02 3.0677731509104772e-01 -3.4854627238675623e-01  -2.0466754459100794e-01 3.7485395603244272e-02 -2.6906978057996594e-01  2.1449152832953100e-01 2.2532477455878747e-01 -2.7751864891822869e-01  -1.5692272099634344e-01 -1.5544762402087642e-01 -4.0026695923624189e-01  -1.2951362352942294e-01 -4.0040195708543634e-02 -3.9183852367718336e-01  -1.0012099515751383e-01 -1.1264816893510946e-01 -4.0919137783229742e-01  -1.7413083805566593e-01 -7.9315028759292375e-02 -3.7136510123480010e-01  1.0821181640274351e-01 -1.7254850664307211e-01 -3.7138147450793235e-01  1.7394103964446581e-01 -1.3896111211902537e-01 -3.3237996717025908e-01  1.2078762182702170e-01 -2.2505011269650921e-01 -3.5293091577052205e-01  1.5914117117874044e-01 1.3689064266715764e-01 -3.3935300782454680e-01  9.1036066035816168e-02 -9.9780757368627071e-02 -3.8156634594901057e-01  4.4982005826382031e-02 -1.5787764692440012e-01 -3.9533690321525727e-01  -1.6441566579748268e-01 1.7740676666007305e-01 -2.6462908516754968e-01  -1.7140542803040140e-01 -2.4397891819340642e-01 -3.9736475806329419e-01  -1.1228924196979284e-01 -2.0970989890798925e-01 -4.0913169234647523e-01  -1.2083082877116114e-01 -2.9977148889829469e-01 -3.9633093105905082e-01  2.1763690027399851e-01 -7.0962127439307604e-02 -3.0330218699751821e-01  2.4986920402207921e-01 2.2081199121699868e-03 -2.7506404026897496e-01  2.4288410491128282e-01 -1.1729309379503934e-01 -2.7741164972352328e-01  2.0162422997085289e-01 3.8928496314179099e-02 -3.1338961552788591e-01  -1.0559926416442345e-01 9.9656659915735898e-02 -3.8012242470063323e-01  -7.8997471853075721e-02 -1.2015621046318755e-02 -4.0242488962698536e-01  -4.6164606200747318e-02 1.0948723207343040e-01 -3.9403195823283166e-01  1.2613547081830589e-01 -2.6980692252228183e-01 -3.3351813947248171e-01  5.6711648355933619e-02 -3.0057434351217899e-01 -3.6090761669507254e-01  2.7356433690791167e-02 -2.4785000308013291e-01 -3.8702565100699060e-01  -2.5644683162833876e-01 -1.8107342440852062e-01 -3.2870249972541310e-01  -2.1024091936296785e-01 -1.0688640870856532e-01 -3.4698283110347039e-01  -2.1437527303306003e-01 -2.0222316025500328e-01 -3.7591032595281315e-01  -5.7658861617580860e-02 -2.6198513725342276e-01 -4.0004686363908970e-01  2.2594158222170857e-01 1.1191610405581361e-01 -2.8958584462857623e-01  -1.9108717177182039e-01 -2.9808731718793879e-01 -3.8127820655237243e-01  7.9076027423426315e-02 3.2358837444299871e-01 -3.4328000860217284e-01  6.4324943386061026e-02 2.5457731851965287e-01 -3.7014227851347431e-01  2.2489883815808448e-01 2.5521363789281110e-01 -2.5056461723972817e-01  9.3000002268059490e-02 1.1099455665314500e-01 -3.7102149706473370e-01  2.1467044201869394e-02 1.1211556190037449e-01 -3.9365776770706445e-01  8.2134924580799379e-02 1.8083724542201429e-01 -3.7592702775323500e-01  1.4409960199243013e-01 -6.6632815157231226e-02 -3.5658850307068363e-01  1.4191685435468898e-01 4.1829955537984818e-02 -3.4663633970249808e-01  1.8195476174106752e-02 1.7361274933539045e-01 -3.91551572