<?xml version="1.0"?>
<VTKFile type="UnstructuredGrid"  version="0.1"  >
<UnstructuredGrid>
<Piece  NumberOfPoints="683" NumberOfCells="2041">
<Points>
<DataArray  type="Float64"  NumberOfComponents="3"  format="ascii">0.3299499781334655 1.854483317912125 -1.318405312045029e-15  0.4244318689682032 2.425443575244972 -1.317579017704407e-15  -0.2865343050227206 1.872876945087735 -1.309045802498622e-15  -0.8334669202157021 1.590280479707668 -8.707046933166745e-16  -1.251462284355914 1.136600490145069 -8.510468117736724e-16  -1.466190512509286 0.5537980954016201 -4.494384272683899e-16  -1.509990580352828 -0.05808376454105008 -4.38175890617041e-16  -1.347415468007314 -0.6377701842395402 -4.377557642766723e-16  -0.973206687900618 -1.102115264465188 -4.455686574435824e-16  -0.4516195136405158 -1.388864203580789 -4.386944428637938e-16  0.1490999698288056 -1.433925285050015 -4.386021770900724e-16  0.7352426192298188 -1.255168003568743 -4.420620794397939e-16  1.247192902934972 -0.9127467148005228 -4.420007212349394e-16  1.610781922638877 -0.4258758661175559 -4.301166067671916e-16  1.769707700924297 0.1530819784844892 -4.430620034933667e-16  1.702451683988562 0.744530489554444 -8.859465467124897e-16  1.386506356267814 1.262649380063323 -8.895363566197225e-16  0.9121762914186394 1.650988915787276 -8.738550635805236e-16  -0.2292250457192796 2.494206894579083 -1.305733043476199e-15  -0.8877756354008375 2.389879756383328 -1.305647544775307e-15  -1.488120942149586 2.084038014588952 -1.312248740874095e-15  -1.970274648861043 1.610080058427548 -9.483735302331733e-16  -2.308155697649096 1.025942359128517 -8.838527533388429e-16  -2.481691069362711 0.3736851511595715 -4.290075416351682e-16  -2.483077696348128 -0.3014253461177523 -4.421743125036422e-16  -2.300455580672127 -0.9525045837903865 -4.485140018526867e-16  -1.953871371053141 -1.530905749912043 -4.189547970662395e-16  -1.46700914851467 -1.99721578126272 3.085382352470954e-18  -0.8672048178073601 -2.301495089358918 -1.267341040425641e-17  -0.2116784923842837 -2.449421403533274 -2.645800734224097e-17  0.4587416464178714 -2.436991727137626 4.985108267695932e-18  1.114413683203783 -2.273438007664019 0  1.703614296708069 -1.942484795279924 -4.16495725271724e-16  2.193390431978234 -1.476956803838569 -4.195712542365926e-16  2.56728216538306 -0.9120268135105811 -4.005048751957325e-16  2.805892246071577 -0.2756078270788723 -4.377086744814263e-16  2.861067137770872 0.4139633493284513 -4.367190124699537e-16  2.664137282501693 1.077213049855075 -8.595727493268526e-16  2.235488921771421 1.619532810673489 -8.876116475182784e-16  1.678571054071441 2.010275955960819 -1.346647902900735e-15  1.062648868761192 2.263817162424562 -1.306185060415935e-15  -1.479601558217008 -0.9957124145528415 -0.6218672279659925  -1.833744163903193 -0.6416794711090417 -1.173529859978678  -1.540894409973226 -1.242989403387963 -1.288555799633275  -2.034211374698564 -0.4892726639904159 -1.934471233065161  -2.156148550138179 -0.138926333621884 -2.52824848548953  -2.054985107766353 -0.5654903558144497 -2.68998089687249  -2.08672252079352 0.1466087357465492 -1.996469598255376  -0.7319394583075116 1.679196516880459 -0.9343897490266662  -0.3706531168124634 1.787904114787597 -1.161049230917117  -0.8882554106531079 1.532525793184353 -1.579000809770582  2.12060686289718 0.02258965321553628 -1.028633154237217  2.032113702109358 -0.5160872340608093 -1.283681531658952  2.147849578936873 -0.06015688700435973 -1.600224072901182  1.90899149435011 -0.4542379029939472 -0.701338853893521  -1.718784817814516 -1.05601766377978 -3.387677704064222  -1.968014709010748 -0.6535719447874144 -3.351555407255603  -1.702581705026411 -0.8512158021083416 -3.991862162579114  -0.8303321491174884 -1.719605222241101 -1.050694569307942  -0.4902196540885328 -1.870689670280189 -1.404904015546762  -0.4287509163955895 -1.753232270026491 -0.7383592661194512  1.587526337786435 -1.116157222895866 -2.954002307298579  1.815926839230692 -0.5823858527986518 -3.487284862471762  1.87569810368122 -0.5227723738264749 -2.699654875850711  -0.7815449622277432 -1.510675103999866 -0.4661229246287394  -1.190379658206907 -1.427253910595911 -0.8110426474122564  0.2374167918655651 1.800477537278819 -3.931737226688282  0.692813042408376 1.769209454342327 -4.492788479675605  0.1301000239828508 1.894359667761774 -4.562449771096158  1.923080132283685 -0.07591474453200671 -0.4641492580913864  -1.786316494683541 -0.9789572472371706 -1.731776234824035  -1.498544338368087 -1.361327685496149 -1.917749712176702  -0.03980706113394813 -1.670273942462848 -0.4864469321901084  1.59870339530807 1.312366702651068 -0.7051305575513055  1.905547020815574 0.9042967827803665 -0.8643306164870133  1.700310283542415 1.20887144646692 -1.530619931846106  -1.847069770914431 -0.9686912720592329 -2.243118203146298  1.298343731831517 1.144314369027948 -7.06720753892225  0.724780344747275 1.357692239092911 -6.951633467777028  1.13450633042444 1.50722756521501 -6.373382493282991  1.765916950513078 -1.075691043539172 -1.637786055791944  1.755388271964015 -0.895376140315346 -0.9583376546771051  2.002656877384329 -0.5313093714069637 -1.909834435714029  1.630805367889266 -0.7351245171003812 -0.4304791805998864  1.30539005207227 -1.159205847800934 -0.5676620154427212  -2.154217651549335 0.2660285655243304 -3.89497124073999  -2.230184033799864 0.4686347166793275 -3.365369402863749  -2.126567145863423 0.7675330710971898 -3.84864000300729  -1.298343994405722 -1.582495970923678 -2.625961975130673  -1.536897146978033 -1.355464769614249 -3.069739744459395  -1.106561639137346 -1.682820690243345 -3.299191290581134  0.6193526447428664 1.898219524155671 -0.5250693860421012  0.08127016698804546 1.950462959650377 -0.6792408471978642  -1.379247547693631 -1.329057497311069 -3.75808929917465  -0.03586475821702873 1.719866490040534 -2.425354772315974  -0.3431682822324933 1.799735269016669 -2.968697825522408  -0.7631498175872952 1.660843460037662 -2.359359867080383  0.5687670026726332 -1.917946097925557 -1.424475263241963  0.07102972523297338 -2.003673337799483 -1.813888117635666  0.7315394173298353 -1.920180480875171 -2.220036784451714  0.01797186644032887 -2.039568412805373 -2.526745555129978  -1.163233567227745 1.352817761321825 -1.081181320800857  -1.063861595027638 1.473733484936234 -0.4942846590587202  -1.471596197766633 1.095008378407329 -1.510148221714852  -0.5269310187566456 1.817444240904939 -0.5227109187705343  1.996529149251181 0.430794400319616 -0.6253452466179  0.04956106645264857 -1.895735530417515 -1.092202903459618  0.4993226594509214 -1.672059050011376 -0.6865302325094723  1.127968379515954 1.678691766298627 -0.6103410142122648  1.186357994511602 1.619948577484044 -1.280627193265071  2.091818167319087 0.5436237105881913 -1.444651105787757  0.8958555289106309 -1.711890884316676 -1.138497251811717  0.9741444927722721 -1.463117475667469 -0.694102901521193  1.385929382381943 -1.438327049667186 -1.252698953619387  0.5382834255181216 1.723850400995059 -1.792287451095336  0.09847627849882137 1.832212007226814 -1.333203435652278  0.6495015488629512 1.867818750705434 -1.043305841503116  1.19250938215432 1.434713398629174 -2.096905065859779  -0.271106180204791 1.713916940605698 -1.803153211193452  0.4534015263189852 1.586525168689054 -6.46512942884973  -1.066795244795278 -1.646839898285356 -1.535392200044126  -2.187334026553768 -0.0775837996530508 -3.214926490387221  1.066836249325454 -1.754142703947531 -1.677644030059546  -1.899718105696865 0.9328553375502207 -4.608424388828674  -1.768269446217773 1.347704550357635 -3.860526703961206  -0.7047361919192455 -1.916693583204613 -2.799836978369427  -1.032794421778871 -1.722720337286072 -2.204623541304412  -0.5594744926221094 -1.904681997083401 -2.044734515900656  -2.066778068992812 0.9616750689101347 -3.197349157916944  -1.466631159953511 1.531362674162097 -4.6242715690768  -1.666431417193698 -0.5308290244631106 -0.5688464951209208  -1.822329823568646 -0.05857104928856646 -0.8614056597639639  -1.665128631766547 0.40778472921308 -0.5615455525455429  -1.029727167382515 1.56868036087551 -5.639558460465811  -0.555777153304169 1.803197786207267 -5.609411297483149  -0.8173729166751124 1.388306979768617 -6.193932844585302  -0.9641637982394706 1.772608772992406 -5.030251345374311  -1.831847471587698 -0.9973500874556731 -2.802009405108129  -1.345250814256115 1.670347979945338 -3.437745494024056  -1.716271131553432 1.369885673990368 -3.018874270723552  -1.263223180321696 1.598464121681407 -2.792135143200973  1.402850385110081 -1.496691086041987 -2.157112539080274  -1.437268844790554 1.358424468688758 -2.26869691038797  -1.24399595540436 1.710604056422522 -3.974698199980191  1.130931849386667 -1.626146599935312 -2.879204964149402  0.6338952547198484 -1.923174177510287 -2.904023427629346  0.9046939218527874 -1.743535787431687 -3.650396895917578  1.933048719841678 0.917777361051576 -5.222575659148323  2.020270768308191 0.7447450237704456 -5.803715536332543  1.732403473905146 1.212550934828115 -5.670372276902833  0.3823290852686689 1.666791666091187 -3.138603927017613  1.742752079462498 1.090064359659917 -6.416417493540132  -0.883678337250914 1.83068381965158 -4.371694559523158  -0.4519519965563727 1.914119251724231 -4.83510157298198  1.613561890704831 1.065314935231766 -2.317840068755753  -1.465248924924035 0.97054724463568 -0.7462920181186309  -0.4069427318094434 -1.766857053455134 -4.265656772658534  -0.7210441765167264 -1.513243722789238 -4.650355769276294  -0.2979138979532272 -1.588227411484266 -4.993582797098703  2.052785431366612 0.06379335489777989 -2.188688591516899  1.351089571514952 1.173115345433802 -2.841951810844303  1.792401990129219 0.6264138748049347 -2.969613978842274  -0.7439725995935165 -1.219020690720635 -5.379402908780904  -1.735117191125923 0.5909306491196742 -1.176673411852115  -1.890804961530186 0.6656304850356797 -1.898455788437266  -1.930220908663699 0.2232387641009391 -1.474974513797876  -1.666705140565627 1.041179394635327 -1.992739286256185  0.109114921502852
[...]
<PointData  Vectors="f_5966031-0"> 
<DataArray  type="Float64"  Name="f_5966031-0"  NumberOfComponents="3" format="ascii">1.0205704369183891e-01 4.1043611225528509e-01 0.0000000000000000e+00  6.3500839007640753e-02 3.1287456381669487e-01 0.0000000000000000e+00  -3.4402998188368158e-02 4.1970649156956452e-01 0.0000000000000000e+00  -1.7381882088845127e-01 3.8473507927885892e-01 0.0000000000000000e+00  -2.8743931183216581e-01 2.9946604163522039e-01 0.0000000000000000e+00  -3.6861423126627513e-01 1.8027770581181218e-01 0.0000000000000000e+00  -3.9883118240523335e-01 3.3831708122695689e-02 0.0000000000000000e+00  -3.7667173896452000e-01 -1.2559562273082625e-01 0.0000000000000000e+00  -3.0914811474740017e-01 -2.7931336254609745e-01 0.0000000000000000e+00  -1.9231199618155076e-01 -3.9768399942694749e-01 0.0000000000000000e+00  -4.3810187166783102e-02 -4.6369618501084292e-01 0.0000000000000000e+00  1.0889778407028636e-01 -4.6203916441639509e-01 0.0000000000000000e+00  2.3485295464196343e-01 -3.9145540378298666e-01 0.0000000000000000e+00  3.2021126851120035e-01 -2.6521769293677477e-01 0.0000000000000000e+00  3.5913402876817063e-01 -1.0989140700495093e-01 0.0000000000000000e+00  3.5458153328490699e-01 5.5574640456520955e-02 0.0000000000000000e+00  3.1010346079303175e-01 2.1042961078285902e-01 0.0000000000000000e+00  2.2450640323386931e-01 3.3498670742597642e-01 0.0000000000000000e+00  -3.1123002009477516e-02 3.1226031261345560e-01 0.0000000000000000e+00  -1.0657186821950951e-01 2.7187031833365716e-01 0.0000000000000000e+00  -1.6362914202510576e-01 2.2429793346370952e-01 0.0000000000000000e+00  -2.0478459670542448e-01 1.6816989419526862e-01 0.0000000000000000e+00  -2.3017996127691639e-01 1.0542213811359653e-01 0.0000000000000000e+00  -2.4504644426209474e-01 4.1665529413814316e-02 0.0000000000000000e+00  -2.4224994902033126e-01 -2.0779852281194597e-02 0.0000000000000000e+00  -2.3090433457155429e-01 -8.0442458722308596e-02 0.0000000000000000e+00  -2.1281461015534239e-01 -1.4345580502298746e-01 0.0000000000000000e+00  -1.7876132660495866e-01 -2.0692872696008138e-01 0.0000000000000000e+00  -1.2810760102973726e-01 -2.6499661897265187e-01 0.0000000000000000e+00  -6.5174045165958844e-02 -3.0053471919934110e-01 0.0000000000000000e+00  8.9044459659506688e-03 -3.1580418523799370e-01 0.0000000000000000e+00  7.4760540125179256e-02 -2.9819269155179895e-01 0.0000000000000000e+00  1.3439460669866046e-01 -2.6228029728773355e-01 0.0000000000000000e+00  1.7733624007682527e-01 -2.0648637049268218e-01 0.0000000000000000e+00  1.9689239661563138e-01 -1.4093624038786162e-01 0.0000000000000000e+00  1.9650223813336784e-01 -7.5143907952703870e-02 0.0000000000000000e+00  1.9140799403825956e-01 -2.7997736309704240e-02 0.0000000000000000e+00  1.9502194114609991e-01 2.2419922131709413e-02 0.0000000000000000e+00  2.0503799034133141e-01 8.9908019653111376e-02 0.0000000000000000e+00  1.9318254198055440e-01 1.7771431086571099e-01 0.0000000000000000e+00  1.4366039482143159e-01 2.6434497096248488e-01 0.0000000000000000e+00  -3.4697207757683701e-01 -2.0441653605478483e-01 -1.0920197968018086e-03  -3.7810683953953844e-01 -1.1552647502063491e-01 -4.1005398215705154e-02  -3.2734045028801451e-01 -2.5563003535921730e-01 -5.5057796141781037e-02  -3.8583185644708251e-01 -1.0297491237692639e-01 -1.0577591649485436e-01  -3.9197291427036124e-01 -5.5359641263036767e-02 -1.5428374318220153e-01  -3.9287824057715748e-01 -1.5490391600035888e-01 -1.7563579091131587e-01  -3.7891672568025486e-01 3.4054003380684025e-02 -1.0412597956920877e-01  -1.5676786287337111e-01 3.9132795595396408e-01 -5.2523206567941225e-02  -7.9964597051379746e-02 4.2374359787396676e-01 -7.2469976627098059e-02  -1.7875060228374809e-01 3.8561029904386518e-01 -8.3480916366341223e-02  3.5201342015079495e-01 -7.8037474424190831e-02 -4.2972100353241408e-02  3.4201669756194814e-01 -1.8387262398985579e-01 -6.3045589527069970e-02  3.5597813250229210e-01 -7.3057717355886939e-02 -9.5445196139531258e-02  3.3878339128041884e-01 -2.0401805502426462e-01 -1.2846014625609631e-02  -3.5709529740692930e-01 -2.8764570133834916e-01 -2.5340360612225671e-01  -3.8871938381672072e-01 -2.0623292818966310e-01 -2.4515599475753178e-01  -3.6090899475691524e-01 -2.7432743407507104e-01 -3.1230119406154727e-01  -2.1029546722516085e-01 -3.8437090638861049e-01 -3.7734013858851924e-02  -1.4509357776389695e-01 -4.3544168889214130e-01 -6.7658518310333662e-02  -1.4173435356562097e-01 -4.2482998200635219e-01 -1.0327160876189029e-02  3.2532540992835346e-01 -2.6497639635342451e-01 -1.9487645894754035e-01  3.7126690959668285e-01 -1.3786260504752840e-01 -2.0915926226142709e-01  3.7198324522969317e-01 -1.4125590286291148e-01 -1.7587105009760087e-01  -2.2782053193512927e-01 -3.7057945919753366e-01 1.0269074665984536e-02  -2.8403721688600658e-01 -3.0776183695090070e-01 -1.7155823747370211e-02  7.8580966899870514e-02 4.7135599553719715e-01 -2.1612787294822916e-01  1.3863347110321247e-01 4.4430623012055587e-01 -2.5070410588937397e-01  3.4868690528683320e-02 4.5859074138237071e-01 -2.6534450801356479e-01  3.5632581526051826e-01 -1.3113733032185954e-01 1.7610140791253514e-03  -3.6207943386026437e-01 -2.0754123524712181e-01 -9.1077064662438922e-02  -3.1686063111117874e-01 -3.0713497134579826e-01 -1.1043481258447681e-01  -6.5474656698485720e-02 -4.5788976075528881e-01 9.1907418771960733e-03  2.9411601027143358e-01 2.1516803043137780e-01 -2.9719937628663710e-02  3.2999969840722132e-01 1.1524529602800442e-01 -3.7344143828298648e-02  2.9362696630313850e-01 2.2032892756882505e-01 -9.9880508445366195e-02  -3.6767445041766611e-01 -2.2369846764752246e-01 -1.3710826155639086e-01  1.1800512973943660e-01 2.5395247772891899e-01 -4.5419928440318857e-01  2.6153213800389676e-02 2.8945932039981126e-01 -4.6515944441636237e-01  1.2245171176947796e-01 3.3470371761747586e-01 -4.1166857380853950e-01  3.0663452920929435e-01 -2.8427681568980390e-01 -9.4476960061577978e-02  3.0735278995087145e-01 -2.8727237310802706e-01 -2.9386210529243357e-02  3.5641324593522278e-01 -1.6491734334459801e-01 -1.2200778400845876e-01  3.0824478905605668e-01 -2.9965399920433949e-01 5.6878413257201114e-03  2.4001842413742600e-01 -3.8692801836292962e-01 2.7229095567777289e-03  -3.7128968145574415e-01 -3.6616362270316713e-02 -2.7700502501167518e-01  -3.5780194810944271e-01 2.9771886091823473e-02 -2.2119524736297760e-01  -3.3294861909579249e-01 7.4802189045636097e-02 -2.6060480027711214e-01  -2.7787948069029861e-01 -3.6881364107142406e-01 -1.7623863181902605e-01  -3.2012606578486807e-01 -3.3106022950523928e-01 -2.2076381104211684e-01  -2.4042424743885937e-01 -3.9542073405150707e-01 -2.4357246649733341e-01  1.3301081845153351e-01 3.8692371616877613e-01 -2.5745007316713361e-02  2.1441082590353908e-02 4.1940127966623236e-01 -3.9744056160522151e-02  -3.0237941062304341e-01 -3.5392494415955783e-01 -2.9184022352789984e-01  1.6705563686354601e-02 4.6135646329487690e-01 -1.3670754786147823e-01  -2.4885355623332335e-02 4.5563058067457218e-01 -1.5830848107265830e-01  -1.2083927439176824e-01 4.1686039487404369e-01 -1.2135600667671791e-01  6.1117651886837168e-02 -4.4898684683707224e-01 -7.0513839982934312e-02  -3.1275345659609023e-02 -4.5897371070896753e-01 -1.0638543770332413e-01  1.1120139436432469e-01 -4.3134283527023309e-01 -1.4579215254328956e-01  -2.5724623868040433e-02 -4.5363276125698021e-01 -1.6870644001597163e-01  -2.4808271736633850e-01 3.3294414360833302e-01 -5.3046405721534531e-02  -2.3001177117990776e-01 3.4323756238383268e-01 -2.1176016297545834e-02  -2.9018809575395510e-01 2.7620677678644184e-01 -6.4520134960408163e-02  -1.0838993474695660e-01 4.0562468699883392e-01 -2.8398524501876160e-02  3.5414949406437302e-01 -2.4875543774774966e-03 -1.4107093584032795e-02  -4.2209794070437651e-02 -4.5768517223541305e-01 -3.7539218056046354e-02  5.5967204640990552e-02 -4.6543338132711215e-01 -2.6331716087640380e-03  2.2413573991544400e-01 3.2118541815553975e-01 -2.8205046534330709e-02  2.1977477815317503e-01 3.3127098845084141e-01 -8.4841014378335258e-02  3.4268805275104142e-01 5.3326374945798186e-02 -8.4934028359882327e-02  1.3223565840324880e-01 -4.3546930825081870e-01 -4.1311846635005901e-02  1.6395543502494586e-01 -4.3500393579721225e-01 -2.9059011233452973e-03  2.3075629666237718e-01 -3.7465856999880182e-01 -5.4301370552605054e-02  1.0707536771752595e-01 4.2534517944860972e-01 -1.2169376355042594e-01  1.4697700770853297e-02 4.3605366482502173e-01 -9.0225327782251868e-02  1.2504328672614651e-01 3.9517082110844542e-01 -6.9549800308749826e-02  2.3013066763540785e-01 3.4535639810573576e-01 -1.4265548848941914e-01  -5.0794418611104515e-02 4.4272152758134453e-01 -1.0736024936868611e-01  2.7859425582509420e-03 3.4167771520190654e-01 -4.3703412936601627e-01  -2.4860945791392094e-01 -3.7245875627363190e-01 -7.9150413562122726e-02  -3.9063929653187779e-01 -7.9373615850128157e-02 -2.1943924102357831e-01  1.6665316997764659e-01 -4.0967717891725131e-01 -9.7389629615599244e-02  -3.1163136139892522e-01 9.2422173894062168e-02 -3.1612028535367159e-01  -2.7185075551117044e-01 2.1720520767192819e-01 -2.4672574828164079e-01  -1.6457669160772251e-01 -4.3138212593616937e-01 -1.9153980234655468e-01  -2.3528277919005910e-01 -3.9808651009113716e-01 -1.3701129756462629e-01  -1.5016842282900728e-01 -4.4185019153763511e-01 -1.2379922562014131e-01  -3.1932731630574274e-01 1.4515472734030155e-01 -1.9750336177688568e-01  -2.3876462045244737e-01 2.4321946356060137e-01 -2.9986633095128878e-01  -3.8145964858502329e-01 -9.3230656196407968e-02 -7.1905455313327356e-04  -3.8912523017048134e-01 1.9101476255236977e-02 -2.0633276594477747e-02  -3.7838633212293121e-01 1.2533102863094683e-01 -8.1065791526663804e-03  -1.9317302184094759e-01 2.4441277551304832e-01 -3.8193091462236789e-01  -1.2133071244246854e-01 3.3187652039410692e-01 -3.7358835844904459e-01  -1.8269761867109685e-01 2.1427112314595442e-01 -4.3240559083062735e-01  -1.6873706863026036e-01 3.1935149002516883e-01 -3.2446309629794035e-01  -3.6894223853608810e-01 -2.5131588052753995e-01 -1.9186022502055491e-01  -2.0023848929127261e-01 3.3037478670751808e-01 -2.0171531480216548e-01  -2.6299058700431405e-01 2.5676556760331753e-01 -1.7281213160990611e-01  -1.9492722442656271e-01 3.5055517334117692e-01 -1.4672342442775599e-01  2.5113531687702578e-01 -3.5141146089650538e-01 -1.4197106071530363e-01  -2.4221807485552421e-01 3.1197517549923848e-01 -1.0993344883683669e-01  -1.9284319902954072e-01 3.3293598378733158e-01 -2.4426760926051402e-01  2.2148553077868519e-01 -3.7104851174962633e-01 -1.9551169422186135e-01  1.1146671075061583e-01 -4.2121100043647958e-01 -2.0024306904516881e-01  1.7351266673242985e-01 -3.7506637484959499e-01 -2.4946321791517778e-01  3.1117371717344733e-01 2.0902523294743977e-01 -2.9431741846640630e-01  3.0472039424090208e-01 1.7029396822401199e-01 -3.3869605488318649e-01  2.6072976934002456e-01 2.7438008126598390e-01 -3.3431142627775118e-01  1.1440546770510517e-01 4.6266448959931444e-01 -1.7406245689781960e-01  2.2463672135109483e-01 2.4336525631706724e-01 -3.9378530945541057e-01  -1.3953247663033067e-01 3.7556674161029241e-01 -2.6784088913631721e-01  -7.9230085916397824e-02 4.0626784337738531e-01 -2.9932712638639952e-01  2.9989161812078841e-01 2.4136944010313316e-01 -1.5428482590494760e-01  -3.2166989002740859e-01 2.4698093360076109e-01 -2.5012249396219953e-02  -1.0695293167235331e-01 -4.2088290177131088e-01 -3.2544999326803309e-01  -1.7806368918072582e-01 -3.9855478065356892e-01 -3.6443681419421259e-01  -8.9851576608194997e-02 -3.9824724931622768e-01 -3.8296048210696754e-01  3.6583173052499207e-01 -2.1071549637951985e-02 -1.4325651012987414e-01  2.7936612473288475e-01 3.0855094180704723e-01 -1.7344248806473295e-01  3.4288182247262566e-01 1.4873133624375406e-01 -1.7972616597964175e-01  -1.8462567368199700e-01 -3.5866269902150305e-01 -4.2186009929899848e-01  -3.5860565867727640e-01 1.6285091265217441e-01 -4.3070993292948508e-02  -3.4665672661622610e-01 1.5837967229249722e-01 -8.8205559660806870e-02  -3.7984372273500699e-01 7.2104405417453651e-02 -6.1419506030919994e-02  -3.0159225933948003e-01 2.4306831678142610e-01 -9.3099081484757262e-02  -2.4622372782884948e-02 3.7946362787805732e-01 -3.9202286626340777e-01  -2.3294940904864142e-02 4.1662137395103849e-01 -3.2810740000492200e-01  3.3280677000769732e-01 -2.5388887260093701e-01 -1.4901092151337053e-01  -3.1218583250903270e-01 1.9532384048904500e-01 -1.3299449924022391e-01  -3.6305195066226514e-01 6.6771248868831415e-02 -1.5218144049765803e-01  -3.8884098000650935e-01 -2.4078133743375332e-02 -6.2360533421803623e-02  1.0873106546268152e-01 -3.5662699644945522e-01 -3.5237374443065783e-01  2.0753655156877515e-01 -3.2194209131974622e-01 -2.9990549015753076e-01  1.2041157861533459e-01 -3.7358492272534854e-01 -3.0411071173066689e-01  3.0327094317332010e-01 2.7981955135530612e-01 -1.8904361889203961e-01  3.6324648337738774e-01 5.3081929774083964e-02 -2.4165353097021833e-01  3.7097897581669553e-01 2.8849546703791445e-02 -2.0125092748279680e-01  3.7317421390022404e-01 -6.4638813999528213e-02 -2.2617799048081605e-01  3.7293892675047768e-01 -4.5059940391909076e-03 -1.8177122726375419e-01  2.4952695731838070e-01 -1.2853294372917862e-01 -4.1984785293380206e-01  1.6624626469698112e-01 -2.1136683595457526e-01 -4.5054807527963375e-01  1.7586736843441966e-01 -1.3502856083644615e-01 -4.6844161616821084e-01  3.3495273275162696e-01 1.3376995119624185e-01 -1.4636004158750129e-01  3.3923323250171522e-01 -1.8191355708166063e-01 -2.5597478750721825e-01  2.9662505728479333e-01 -2.6948980026742081e-01 -2.4509073632905010e-01  2.8487623032564191e-01 -2.3511532639987157e-01 -3.0327577488440793e-01  2.1593113113799994e-01 -2.2492033193568850e-01 -4.0487285391508426e-01  3.6503262751742516e-01 -6.7863386928990715e-02 -2.5650411661054123e-01  2.9871416310669419e-01 2.8618391542893457e-01 -2.1569838582138509e-01  2.3651121441099540e-01 3.8629498335832441e-01 -1.8948255938577158e-01  3.3826476295121571e-01 -1.2906676673960107e-01 -3.0174685893825637e-01  -2.9115460979155877e-01 -2.9810425034827637e-01 -4.1005141363799458e-01  -3.1488595226660887e-01 -2.0478159461616374e-01 -4.2287492044638503e-01  -2.4372514594757380e-01 -2.7198740365661211e-01 -4.5155460528685004e-01  -3.3753011617899148e-01 -2.9729564407946119e-01 -1.6061838139130608e-01  3.4364684647934751e-01 1.5306815592834272e-01 -2.0456372731537373e-01  3.4662481971950848e-01 -3.7917025799140684e-02 -3.1817854269316181e-01  3.6281823324996171e-01 -2.0856596626054394e-02 -2.7794941665901829e-01  -7.2991352906285265e-02 -4.3891984141995838e-01 -2.2713731202501897e-01  3.9313899210898708e-02 -4.3103455450962735e-01 -2.3726684376980289e-01  6.3064795976216892e-02 -4.0638873534990277e-01 -2.8283216756481172e-01  -8.1116678886897844e-02 -3.6638452251586201e-01 -4.3138820105338377e-01  -1.2955500091702951e-01 -3.0920927925206088e-01 -4.6644002495655096e-01  -2.8135318901616722e-04 -3.3366441634950483e-01 -4.4707505542890102e-01  -5.8492087685122929e-02 -4.2959286966379406e-01 -2.8131656922688841e-01  1.2143614961529662e-02 -3.9950428114736680e-01 -3.3778049390558657e-01  2.0871790551127553e-01 3.9830309759854754e-01 -1.7066373436799043e-01  1.3536614543548464e-01 4.3528286249878145e-01 -1.5131179212150855e-01  -1.9466134859722337e-01 -4.1137848584075115e-01 -3.0397953585519361e-01  -3.8791199162510942e-01 -1.5334006635855618e-01 -2.9973056624221750e-01  1.6927288696033649e-01 4.4393532110889150e-01 -2.0487740441283936e-01  2.0282709562004994e-01 -2.8949270599220783e-01 -3.5726558206270614e-01  -9.3020357602966258e-02 4.2239254046730240e-01 -2.0641525351745568e-01  -1.2494631245099780e-01 4.0514971412738110e-01 -1.6352713479732248e-01  -3.5714947144040465e-01 -2.3046269300122585e-01 -3.6590595301066725e-01  8.7937000891378722e-02 4.3212995889781175e-01 -3.1396897980411442e-01  -3.3354007225556606e-02 4.4925709537362368e-01 -2.4134470200991820e-01  -1.4311229598088301e-01 -4.2918311001555620e-01 -2.5488455412897271e-01  -2.6277320502678468e-02 -2.5568919514167360e-01 -4.8896067225026479e-01  9.3173509968277987e-02 -2.7912480298220993e-01 -4.5273330264275896e-01  8.7450493773447657e-02 -2.0227474294205672e-01 -4.8952596781750524e-01  2.9340169897157908e-01 -6.4971770281740757e-03 -3.9569678391279489e-01  2.3004012836581569e-01 -3.5422011621264689e-02 -4.4550788550790632e-01  3.0801097229685914e-01 -1.0247998631414858e-01 -3.6467815445389729e-01  -3.5286260869184904e-01 -6.9081497717734017e-02 -3.4591853031361974e-01  -3.4534062279413563e-01 1.7280356213468569e-02 -3.0434924691934123e-01  3.3404868362833656e-01 1.7490380283355170e-01 -2.4504643477238625e-01  -2.5151050020504984e-01 -3.7913967168408602e-01 -3.4329776769152187e-01  -2.4606292287296264e-01 -3.6231279228336311e-01 -3.8614680077243274e-01  2.4733191262763793e-01 7.6282408651948755e-02 -4.2417026624463705e-01  1.9262074599843712e-01 9.4290474233587704e-02 -4.4820740334155740e-01  1.9939367510300332e-01 1.9228642245157762e-01 -4.3283489088615407e-01  3.4544521487771068e-01 8.5043516160857299e-02 -2.9430771968306574e-01  2.3540448129498850e-01 3.8037423428595163e-01 -2.2817606522232356e-01  1.9782733593643084e-01 3.9269607831765385e-01 -2.7640707118854124e-01  -2.6419411001427384e-01 -1.1668199895878502e-02 -4.3635950385503763e-01  -3.1523612183871236e-01 -9.4549063849947990e-02 -4.1034473008279565e-01  -3.0150034067621839e-01 2.6745222644270247e-02 -3.7875081944638683e-01  -2.6246096950077530e-01 -1.3732741692943837e-01 -4.6366483641616008e-01  1.1379959329396568e-02 4.6684759136810483e-01 -1.9221414800775244e-01  2.6174926903276274e-01 -3.3017837078904116e-01 -2.2031192096308266e-01  1.1589461909506171e-02 -3.7248693684933565e-01 -3.9692800403525030e-01  1.0990373141391957e-01 -3.2125750801832931e-01 -4.0818025678986081e-01  3.5961036979656541e-01 6.6444892025742969e-02 -1.6861524605279044e-01  2.7358322444968913e-01 3.0831551854928607e-01 -2.7155301075382782e-01  -2.4406768969762491e-01 1.2816861581063269e-01 -4.0671611118054879e-01  -2.2722390849084151e-01 2.1815606040598121e-01 -3.5155341688847452e-01  -3.1333549526867638e-01 -3.2514774878740615e-01 -3.5601222628114332e-01  1.8519616919972168e-01 3.6736951841864302e-01 -3.3339596709514790e-01  1.1395728505653491e-01 1.5760486632329107e-01 -4.7102688454852532e-01  -2.7130126613765276e-01 1.4102553958276851e-01 -3.5202141829577804e-01  -1.5320589325445103e-01 1.5943027775718783e-02 -5.0578811246901589e-01  -1.3710740022198095e-01 -8.9278641204978526e-02 -5.1670261559231967e-01  -2.0866040927655277e-01 -2.5335262488212697e-02 -4.8653791811809577e-01  -8.8584677036056464e-02 -1.8810230755486223e-02 -5.1731241199346023e-01  2.7688800175930672e-01 -2.0734788459198852e-01 -3.4638718689180126e-01  8.5813803999739355e-02 3.9275973098650346e-01 -3.6915816702335003e-01  -6.5737709427328123e-02 2.1745809138424141e-01 -4.8496836885684808e-01  -1.6375677492711788e-01 1.4043465565851873e-01 -4.7501807155662756e-01  -1.0074167885542638e-01 2.8076942861072079e-01 -4.5013076920652395e-01  -1.9831126253702130e-01 -2.2320779647674527e-01 -4.8221192514771710e-01  -1.1909618816497462e-01 -2.0072884465337204e-01 -5.0387770630611106e-01  3.2584435289383973e-01 4.5939196123269875e-02 -3.5062752571607325e-01  2.0293632790858651e-01 3.0625043479430586e-01 -3.7566304445201559e-01  -7.6926701276813477e-03 -2.1382463141416581e-02 -4.9749447338538816e-01  -4.6449355770529922e-02 9.8438080782330281e-02 -4.9552799465859432e-01  4.2761991231313155e-02 9.8436229163667316e-02 -4.8054043390479623e-01  -2.2140568056833435e-01 7.3633036749663053e-02 -4.5330244197533981e-01  -3.4943001369615373e-01 -1.3334449529567302e-01 -3.8067231239824495e-01  2.7276153885344306e-01 1.3174936456621558e-01 -3.9242385642326716e-01  -1.9112791175925778e-01 -1.3911278487966819e-01 -4.9895598517173056e-01  -1.0568772481255830e-01 3.1552929669385343e-01 -4.1462242915308445e-01  2.8352224361851721e-02 1.9791566708096761e-01 -4.8872042967811458e-01  -1.1675741984266437e-01 9.4752197070231997e-02 -4.9593537009955241e-01  8.2520929812127400e-02 -2.963302687857426