<?xml version="1.0"?>
<VTKFile type="UnstructuredGrid"  version="0.1"  >
<UnstructuredGrid>
<Piece  NumberOfPoints="624" NumberOfCells="1872">
<Points>
<DataArray  type="Float64"  NumberOfComponents="3"  format="ascii">-2.261123664924932 1.006288138833981 -1.327148571350092e-15  -1.44286206918996 -2.823831492626229 -2.212842932214375e-16  -2.421935357531589 0.3385583681693625 -1.105112310976969e-15  -2.407934158907906 -0.3353662482423562 -6.672651140901587e-16  -2.167447112833631 -0.9665357956517191 -6.621265276154343e-16  -1.7147627566959 -1.474778684655286 -4.443179778198613e-16  -1.132868655085467 -1.841001913318829 -4.43238148682867e-16  -0.4714804082214522 -2.050313857395477 -4.525323679873014e-16  0.2240851400900298 -2.082615577456171 -4.431445704750985e-16  0.9095439343997537 -1.978219750536606 -4.434049668819987e-16  1.537331998589389 -1.700585720480195 -4.389238530231222e-16  2.054710068427855 -1.25267716600358 -4.432789744509418e-16  2.426169382856133 -0.6795495446359016 -6.631179567666862e-16  2.61218462818397 -0.02302150687394022 -8.905119008741841e-16  2.529955388574898 0.6532317216845837 -1.108614690171937e-15  2.230401762267527 1.264565773610288 -1.332533820613364e-15  1.773561802871905 1.782932537762361 -1.340345560155533e-15  1.19929055561133 2.178374204719805 -1.332377515913411e-15  0.5471513601392067 2.43702494019326 -1.554977947357604e-15  -0.1467967251837839 2.525076277845834 -1.537543455604485e-15  -0.8305717021458255 2.410478255818761 -1.555216661816067e-15  -1.445149294967847 2.097189771182399 -1.319471565834193e-15  -1.928810124318285 1.609255230938703 -1.324174188300659e-15  -0.7427285032527196 -3.066985546198866 -2.707571640801373e-16  -0.007002015847262611 -3.152810510328766 2.129332730840275e-17  0.7311794283635301 -3.086946117092563 -2.042439207555833e-16  1.442402588505975 -2.87831919560624 -2.015669675641216e-16  2.093830521110846 -2.521921535894262 -2.282163883451441e-16  2.64883476640494 -2.033731707241254 -4.377281910181507e-16  3.08815864493751 -1.437975480976953 -4.445737763563532e-16  3.396975743862774 -0.7676905630043795 -6.509664247003684e-16  3.568695889872729 -0.04246080902912398 -8.831203520871691e-16  3.539596757925427 0.7092510756757963 -1.10814613659763e-15  3.278417918592784 1.413987160309895 -1.319146988161414e-15  2.830137141591884 2.014281543923376 -1.331199622151574e-15  2.251893516979661 2.479671106205292 -1.548574092362434e-15  1.5909567570917 2.811813539634497 -1.545915684164673e-15  0.8859973204470158 3.013317131529776 -1.55157845087042e-15  0.163829762974756 3.138104199955422 -1.771490954553545e-15  -0.5705705588901885 3.150442149037404 -1.754123975525408e-15  -1.292978289855447 3.007794776339046 -1.542296533210569e-15  -1.95280658605874 2.673335739124465 -1.520648780052285e-15  -2.504656353311925 2.183810080383906 -1.322536682774882e-15  -2.920161589256319 1.575280998740994 -1.318559864711716e-15  -3.181449998300884 0.8870218505105888 -1.078749569174609e-15  -3.279870422075284 0.1597050597807712 -8.865456930759545e-16  -3.198045652604385 -0.5695626178341932 -6.472592411176761e-16  -2.958076212954522 -1.262368017057452 -4.342009206588482e-16  -2.57556751309024 -1.889731238485655 -4.399248700872265e-16  -2.063783266118766 -2.420513497692959 -2.075042103125812e-16  0.2846808550589019 -1.641914907779262 -4.40472285971596  0.5279921742552965 -1.31454531142832 -4.965186214389084  0.9160900188821288 -1.647984227544871 -4.497040966586224  -2.749580954460426 0.2939163605259814 -1.589034064584434  -2.58362050131089 0.8460367340833007 -1.727353015939769  -2.701354624373515 0.4854303385864182 -2.042586579945103  -0.4710260183016576 2.462549828458002 -0.4908744476650733  0.1621445368845853 2.443476725470027 -0.5904974106369096  -0.4619681737043526 2.252099687818525 -1.163394470845778  -2.575183606735708 0.8019156684268389 -1.222253575491184  1.18117595608024 -1.282947795332732 -5.167042802805596  -1.293382927476742 2.0005716569954 -3.455380967349301  -0.9658683671161887 2.243747218163331 -2.965118194370632  -0.7605523372029429 2.23657587911574 -3.423965018721525  -1.515013297746835 1.974219068148 -2.720663185095982  0.6612361013384358 -2.273000141821777 -0.6662241481244672  0.9796587625555779 -2.349290441519011 -1.314896803958807  1.242100717459964 -2.113849424669692 -0.6510242513272501  1.596842403020707 -2.020281565304795 -1.250825262345873  1.409201854939821 -2.139724469859866 -1.959750325328355  0.7207182057876801 -2.441112888475695 -2.07604546598481  -0.19873959231971 1.540669174483147 -5.098650437602605  -0.7527440338493675 1.592207772990646 -4.613816532441212  -0.1822245058784642 1.996679222405 -4.410929667743225  0.4129400815873434 2.184953750298061 -1.276841981811708  1.159316531378932 2.015558819080598 -1.165026655216563  0.9040301962584588 2.017994440478254 -1.929856031645157  1.84974777033331 -1.730860245898713 -2.546652654394239  1.95545946990642 -1.690726385983309 -1.72179393578392  1.85731052847215 -1.632698588738871 -3.497585106265423  2.195466537087209 -1.300830679094599 -3.242399590274887  2.304854638189352 1.200088532630023 -5.13109015188506  1.77392662618937 1.464853697215898 -5.213840290915451  1.966558305745459 1.602460089487668 -4.537083232288111  -0.8642721532295966 -2.31185724391703 -1.286173108301341  -0.3058868555136863 -2.418910918668326 -1.241442344557938  -0.8180291536368942 -2.216101486702544 -0.7216825322958368  1.888816938178077 -1.702290769476339 -0.6318772220262788  0.2488372522820539 -2.456012996152639 -2.620407531036994  -0.04305454720712215 -2.505302819521837 -1.988536085471292  2.758073526254707 0.7194235333101898 -4.928205690540492  2.579580604264437 0.758205487357086 -5.724200031626228  0.3938267619806078 -2.476151927109855 -1.42560325383608  -1.394448613371898 -1.961189291095402 -0.575166596101139  -0.1493197589202394 -2.210564169118685 -3.262519457000845  0.7241380457202778 -2.21049934664584 -3.339475806273045  0.820377467230637 2.273484011032951 -0.659869556239229  2.308796309849564 -1.232225210396372 -0.6117286653141591  0.4936903795701067 -1.967959049107175 -3.920489010275322  2.324425551668494 -1.199455276253649 -1.375732214471445  2.484820569026739 -0.7082976008375883 -1.629876357390941  2.571654607856512 -0.7500675254474495 -0.9435410508078182  2.271682313356098 -1.114894804979837 -2.093310828916633  -0.1963110507646174 2.212931567952705 -1.977448343825581  -1.824400895974331 -1.791353051327532 -0.9026072454656726  -2.183145836633961 1.408892624824014 -0.7905617964520881  -2.355909875663015 1.238030887139149 -1.59494366747838  2.072642213598975 -1.593100435825868 -1.153262490397149  -2.212998454557164 -1.341063687160569 -0.6834650656603501  1.491985679921858 1.980324598769426 -0.5931188123445187  2.459865830096301 -0.5358945676658888 -2.250879760521101  2.610043035309666 -0.09316550910956396 -1.589267416306013  2.708456942898019 -0.2509818213142284 -0.6648667788573379  -2.460115698242638 -0.8319952404760431 -0.5143768105372065  -2.554287721746072 -0.9693793147714702 -1.19808764679422  -2.22140674009436 -1.480469801263552 -1.264525589682975  1.389911686992159 1.808914004861538 -4.844139680778912  -0.3214948022184848 -0.06434141971363846 -5.451727067204835  -0.295859222634145 -0.59505134729875 -5.175514551584654  -0.8023895798834295 -0.1558613157322939 -4.972570904195013  0.36878491273491 -0.3927640756292846 -5.783826626342944  -1.287201798662562 1.224117258522767 -4.379162514455443  -1.730801973550051 1.199696350942263 -3.916089788169508  -1.435812508959029 1.592913194678163 -3.894820310106008  -1.876042461013859 1.521063705745938 -3.373965880288284  2.180352024704539 1.088738084349312 -2.441845748600841  2.378812070968022 1.08411105493844 -3.069435470135117  1.951848032444775 1.437693313039472 -2.822587966244387  -2.325593232867015 -1.266131356863096 -1.859869948014684  -1.307809426892262 -2.147958358197632 -1.326658166553706  -1.829984827103317 1.730141468006629 -1.415588266057254  -1.659521143620934 1.945070868158267 -0.7321134457017298  2.084910371623638 1.532958571371041 -3.742704243940194  -1.082209643281043 -1.254132940988618 -3.819079426116855  -0.7861920110914176 -1.786201264189465 -3.461657977541969  -1.345794307169843 -1.41611614932767 -3.312655961477927  -1.274460705741439 -1.80460948590667 -2.857711774295178  -1.253464297883984 -0.7113482323767539 -4.113930816884722  -0.7979664344840131 -1.113740073571617 -4.269753958153178  -0.8043252112162371 -0.6769439675657833 -4.642055434597686  0.1772426079417601 -0.926998485050925 -5.244935234625674  0.7779876038734542 -0.9831481737334076 -5.535162739495163  -0.220780856629542 -1.18522357845225 -4.708359654323839  -0.87535629980422 1.900585872516685 -4.027446029176504  -1.244063032071623 -2.092176951895372 -2.19514475372767  -1.832437213493946 -1.819200745718426 -1.697529236741957  -1.782934270853824 -1.636561715798239 -2.345943929128226  2.475507008786358 1.197259207721834 -4.407093944359408  -1.074547015772003 2.277479667189043 -0.6653355326857479  -1.20817566788907 2.067400068804854 -1.246329394250014  -0.2431658370289715 -2.245767763219006 -0.5118716842116878  1.783196814262461 1.703574506964962 -1.027710709560847  -2.349423708383985 0.9648967762295058 -2.978998178933406  -2.096743695540219 1.498298159369646 -2.614866703366216  -2.159842648478227 -0.1938377008116181 -3.293767657108447  -2.149030870386525 -0.7730085391865118 -2.883354779689852  -2.472799432264757 -0.2294442012636285 -2.732810024928456  2.578690323839345 0.04378874283719492 -2.579708774982528  -1.748352551237821 -0.7717523913331998 -3.445776266878214  2.521387116969069 -0.7686757493622297 -3.628374674261335  2.339781150789774 -1.045520178295714 -2.769375811686149  2.56626669843201 -0.500519184638472 -2.902686402667499  -2.058114178254447 0.3210364469686184 -3.638030478980824  -1.718840934367086 -0.1837155306345269 -3.88848871931714  -0.4758369195159781 -2.369540948710738 -2.481587514602157  -0.8582133089620227 2.19156885263531 -2.332427988993664  -0.3479251155030957 2.352394850567764 -2.7945466871
[...]
<PointData  Vectors="f_3690562-0"> 
<DataArray  type="Float64"  Name="f_3690562-0"  NumberOfComponents="3" format="ascii">-3.4256468054144046e-01 1.9526298078987911e-01 0.0000000000000000e+00  -1.7663835201965222e-01 -3.3647167370432257e-01 0.0000000000000000e+00  -3.8257904187035036e-01 7.5418711429176236e-02 0.0000000000000000e+00  -3.9700424445632804e-01 -6.0522907792593741e-02 0.0000000000000000e+00  -3.8595882668392945e-01 -2.0131476265770445e-01 0.0000000000000000e+00  -3.4556670674449602e-01 -3.3733537062352176e-01 0.0000000000000000e+00  -2.7354037229607542e-01 -4.4250132221764232e-01 0.0000000000000000e+00  -1.7833997518608777e-01 -5.0603613475458253e-01 0.0000000000000000e+00  -7.1512948058254575e-02 -5.2444110114384901e-01 0.0000000000000000e+00  3.5755345256396058e-02 -4.9397624663890438e-01 0.0000000000000000e+00  1.3790957118418676e-01 -4.2635773913415864e-01 0.0000000000000000e+00  2.1934796232901166e-01 -3.2893940008438938e-01 0.0000000000000000e+00  2.7014314720374660e-01 -2.0891591196716749e-01 0.0000000000000000e+00  2.8589412624988625e-01 -7.7185806640970009e-02 0.0000000000000000e+00  2.9206242876598065e-01 5.6635786514498215e-02 0.0000000000000000e+00  2.8093819794208619e-01 1.9524564042191619e-01 0.0000000000000000e+00  2.4749522236082763e-01 3.1676096411908888e-01 0.0000000000000000e+00  1.8801188836988247e-01 4.1253012430089786e-01 0.0000000000000000e+00  1.0359466386259493e-01 4.6830083652640669e-01 0.0000000000000000e+00  3.6757384233396828e-03 4.7491421396347111e-01 0.0000000000000000e+00  -9.9380169003638663e-02 4.4055372264669374e-01 0.0000000000000000e+00  -1.9231163721248171e-01 3.7733944754245630e-01 0.0000000000000000e+00  -2.7747152498182925e-01 2.9640859475960329e-01 0.0000000000000000e+00  -1.1759155105407307e-01 -3.6786505645790518e-01 0.0000000000000000e+00  -5.1462334975607198e-02 -3.7684846940462757e-01 0.0000000000000000e+00  1.3612015848610369e-02 -3.6176354328642435e-01 0.0000000000000000e+00  7.0269297614366857e-02 -3.2387622912610359e-01 0.0000000000000000e+00  1.1263619556014599e-01 -2.7401951496277910e-01 0.0000000000000000e+00  1.4665932169595111e-01 -2.1245969778839677e-01 0.0000000000000000e+00  1.6634286706903695e-01 -1.4783708761365696e-01 0.0000000000000000e+00  1.7358329382451673e-01 -7.5394239662028989e-02 0.0000000000000000e+00  1.6633378996951728e-01 -1.4300986059317056e-02 0.0000000000000000e+00  1.6048272050357068e-01 3.0425213187147890e-02 0.0000000000000000e+00  1.6795511666898735e-01 8.0916839537499938e-02 0.0000000000000000e+00  1.7638465684492804e-01 1.4665567380922714e-01 0.0000000000000000e+00  1.6755546776191596e-01 2.3266826490205914e-01 0.0000000000000000e+00  1.3372018387655765e-01 3.1097759153228544e-01 0.0000000000000000e+00  6.7908798650144014e-02 3.6956428674043990e-01 0.0000000000000000e+00  -1.3752797421315291e-02 3.8092624916021289e-01 0.0000000000000000e+00  -9.1109065576272477e-02 3.4810186665570747e-01 0.0000000000000000e+00  -1.4730949616110725e-01 2.9198314233639538e-01 0.0000000000000000e+00  -1.8254283497802115e-01 2.3602722072006890e-01 0.0000000000000000e+00  -2.1480834448870204e-01 1.7716770972832668e-01 0.0000000000000000e+00  -2.4167237250349261e-01 1.1956997837853113e-01 0.0000000000000000e+00  -2.6010135022541475e-01 5.8218305747036896e-02 0.0000000000000000e+00  -2.7253383296663436e-01 -8.3607082284775213e-03 0.0000000000000000e+00  -2.7830950740865690e-01 -7.5626649931235995e-02 0.0000000000000000e+00  -2.7472931467048378e-01 -1.5008712982999106e-01 0.0000000000000000e+00  -2.5798652620165846e-01 -2.2272750069951072e-01 0.0000000000000000e+00  -2.2459119303564098e-01 -2.8690215906136546e-01 0.0000000000000000e+00  -4.4976722963912127e-02 -2.9520184425765816e-01 -3.3333407951216470e-01  -2.6677250226435446e-02 -2.5278010759647107e-01 -3.5270375828166023e-01  3.9995648351754648e-02 -2.7564108802232101e-01 -3.0093111462922995e-01  -3.1901696052576911e-01 2.2319321820360838e-02 -9.2117128921386987e-02  -2.9621907270423581e-01 1.0600740515565661e-01 -9.6905027377155881e-02  -2.9896589032910964e-01 3.3736657052763935e-02 -1.3157550315739244e-01  -5.8625906561736496e-02 4.5857997247275961e-01 -3.4392890904638963e-02  3.2718083818473215e-02 4.7687218314622343e-01 -4.0626880662814988e-02  -5.5994112242387602e-02 4.5620506102520464e-01 -6.7663196714743370e-02  -3.1816866782477138e-01 1.1523389654168897e-01 -5.6120150514052621e-02  5.2436644729562942e-02 -2.2222665361566474e-01 -3.1237304389031795e-01  -1.5463432994954907e-01 2.2966727130476100e-01 -2.0770679688164040e-01  -1.1295066476316130e-01 3.1522162953164085e-01 -1.5909801837820234e-01  -9.4151821476742947e-02 2.9575349049986710e-01 -1.9527743733258457e-01  -1.7396443666937889e-01 2.7095627326904675e-01 -1.4771359215509347e-01  1.5690878486808949e-02 -4.8573150828536760e-01 -1.2648562386911024e-02  6.6408528055940552e-02 -4.2596548727784384e-01 -6.3480153108469828e-02  1.0059718548119666e-01 -4.3982556994339189e-01 -1.3654583112607536e-02  1.5691870030605556e-01 -3.7317774669923937e-01 -5.7478815171748236e-02  1.4010617096158345e-01 -3.5994359002324938e-01 -1.1081798058476160e-01  3.7150256395960091e-02 -3.9791244987647639e-01 -1.2824792495682877e-01  -9.5342515270370395e-02 1.5442440078716749e-01 -3.1903543298576831e-01  -1.3862691706905969e-01 1.5355113847982757e-01 -2.9396669856214674e-01  -6.6342552457156409e-02 2.5244237499645489e-01 -2.5936816143783986e-01  6.9846413041742647e-02 4.7148890127648940e-01 -7.0345486698448229e-02  1.6658156674604915e-01 4.2286541983892162e-01 -6.5194162099837569e-02  1.4006525724760086e-01 4.3362052535170564e-01 -8.2875037314465383e-02  2.0955676205001322e-01 -2.8280970204067107e-01 -1.3286887711478021e-01  2.1942935147049145e-01 -2.9865266338305774e-01 -8.7291758392127716e-02  1.8657202072738283e-01 -2.5242177453432280e-01 -1.8698666776875439e-01  2.4215870765295741e-01 -2.0906310450203006e-01 -1.4946110157136461e-01  1.8778249237564842e-01 2.0526420365431214e-01 -2.1849851757651431e-01  1.2678027454255958e-01 2.4174660320582617e-01 -2.5363482734786813e-01  1.8406460536205246e-01 2.6865159520123461e-01 -2.0056700375257108e-01  -1.8026765362090044e-01 -4.3760001336663018e-01 -7.2338785934505281e-02  -1.1173130482841319e-01 -4.6513145023021263e-01 -6.1545853431578937e-02  -1.8942755900133332e-01 -4.6966710935531158e-01 -2.1906199013914201e-02  1.9148872514480267e-01 -3.5349355958088380e-01 -1.6946063234086071e-02  -2.6222552458728742e-02 -3.8040534937311854e-01 -1.8391602577441585e-01  -6.8661437458446828e-02 -4.1889161023084276e-01 -1.3066638136206421e-01  2.3550276227336736e-01 1.2449675280000784e-01 -1.8273939133230108e-01  1.7383095710989127e-01 1.3189588837693295e-01 -2.2954201446211048e-01  -1.6072085547609635e-02 -4.4810941246557678e-01 -7.3849985490312534e-02  -2.6837558553250734e-01 -4.1525419374895878e-01 -1.4386471657425178e-02  -8.4537946460511978e-02 -3.5415340828266767e-01 -2.5372587247812756e-01  3.4262442750147233e-02 -3.3539533033563890e-01 -2.3032345801184634e-01  1.2469570642336612e-01 4.5512071933256221e-01 -4.2387432470288172e-02  2.4661783845542401e-01 -2.6201789156779753e-01 -1.7389434162027213e-02  -4.0923458551837145e-03 -3.1694081337066965e-01 -2.8556839461014866e-01  2.6595918046662115e-01 -2.2724815854256647e-01 -6.4518985185306979e-02  2.9594642223981332e-01 -1.3805051359012616e-01 -7.3613308213726539e-02  2.7893613167667186e-01 -1.6063714742665544e-01 -3.8070596144025290e-02  2.8064955431880101e-01 -2.0091136114109223e-01 -9.5926990238078852e-02  -1.2321957825276996e-02 4.4503468573271687e-01 -8.6220708372176741e-02  -2.9632316557702398e-01 -3.4346827135166857e-01 -4.1863208764621365e-02  -2.9159382032064995e-01 2.3083809263847838e-01 -3.1590483071211581e-02  -2.7844659182254256e-01 1.8072253125257193e-01 -8.1950922728203979e-02  2.2236856661358398e-01 -3.0082375051848492e-01 -5.0953879596589570e-02  -3.4379920062774916e-01 -2.6064214311068851e-01 -2.0833502362447322e-02  2.0248849987800738e-01 3.8291195926147964e-01 -3.4391070861243080e-02  3.0785928640999888e-01 -1.0243445379368396e-01 -8.7632934754681785e-02  2.9918369555231883e-01 -2.8941342492603675e-02 -6.7045274766462395e-02  2.8321373494266400e-01 -8.1165608832791433e-02 -2.3193105033846462e-02  -3.7309210484858341e-01 -1.6583968851474254e-01 -7.2650998491898761e-03  -3.3645871092308083e-01 -1.7415957612901309e-01 -6.6687769575622696e-02  -3.1305237609504299e-01 -2.6450554353720906e-01 -7.8630777873680155e-02  1.0284504909506664e-01 2.7674539863059539e-01 -2.4690440333132629e-01  -1.3699640495538798e-01 -1.0168410974861691e-01 -4.1116492382805447e-01  -1.4175379410010924e-01 -1.8333526111904933e-01 -4.0817082037663099e-01  -1.9192583124114676e-01 -1.3174247157363861e-01 -3.9989585951534079e-01  -6.5437148183127222e-02 -1.1933905578106405e-01 -3.9605654341671570e-01  -1.9259476768613878e-01 8.1105509726009967e-02 -3.0227587677060613e-01  -2.1679249759904623e-01 7.6212354701079468e-02 -2.7185346708608388e-01  -1.8298263999775488e-01 1.4959427605170725e-01 -2.5802111831359120e-01  -2.1231094971782197e-01 1.4251816402060705e-01 -2.1512396206953147e-01  2.7860444426520076e-01 2.2121677198259088e-01 -7.9962550791436174e-02  2.7453751858020159e-01 1.9686969018930808e-01 -9.5195879144038209e-02  2.5034073801867152e-01 2.9087817763919754e-01 -9.3459999231407451e-02  -3.0565804131991592e-01 -2.3091626495120357e-01 -1.4389627686005049e-01  -2.2898243367192941e-01 -3.9950869754896162e-01 -8.2298438877484989e-02  -2.3085956194606527e-01 2.9254052127542313e-01 -6.8631717793044694e-02  -2.2239338632936820e-01 3.3223008618219213e-01 -3.7293717149959375e-02  2.3039591413254348e-01 2.7537483726852718e-01 -1.3951748136610709e-01  -2.3292756539248186e-01 -2.8132933854929026e-01 -3.4300324472502713e-01  -1.8385659834163923e-01 -3.3212018289759310e-01 -2.9951109451623520e-01  -2.5411745944738973e-01 -2.9783006592024064e-01 -3.0457037588729030e-01  -2.3202905024024278e-01 -3.3403996224108568e-01 -2.5044667204199678e-01  -2.5412497881688867e-01 -2.1696738452863931e-01 -3.6661073166740887e-01  -2.0095675482281219e-01 -2.6343465456141396e-01 -3.7009875720502450e-01  -2.0184111543876010e-01 -2.0811305290544749e-01 -3.9199846049246706e-01  -8.1433179941733450e-02 -2.1229847659271589e-01 -3.8995333696390083e-01  -8.2479681721414969e-03 -1.8754209974036584e-01 -3.5831882735745479e-01  -1.2465572526239707e-01 -2.6000146445374012e-01 -3.7882829628302717e-01  -1.2951122827331041e-01 2.1972616422841218e-01 -2.5105812389767740e-01  -2.1591477844529616e-01 -3.6716556969233488e-01 -1.7483775838805551e-01  -2.7175542363614213e-01 -3.2271231818557627e-01 -1.2629414408094311e-01  -2.7097957740140710e-01 -3.0569769363372151e-01 -2.0130460510197759e-01  2.3852461666409333e-01 1.9838888567296542e-01 -1.6852963969949955e-01  -1.4323823942239430e-01 4.0825518862839771e-01 -3.9876398199849880e-02  -1.5697621160209510e-01 3.8817575371273072e-01 -6.5740528080521582e-02  -1.1767666254138176e-01 -5.0947027554700075e-01 -7.0466009394175074e-03  2.3093571500847085e-01 3.2989217733634058e-01 -5.4489941670729548e-02  -2.5948173203985414e-01 6.6160086528078907e-02 -2.0031923434239990e-01  -2.3391799120924084e-01 1.7913978375784684e-01 -1.5519732118573693e-01  -3.0023476792736681e-01 -1.2944015418306315e-01 -2.8636050995483175e-01  -3.0698880417353502e-01 -2.0000907078160257e-01 -2.6063359530551777e-01  -3.0810289445816313e-01 -1.0784484571699975e-01 -2.2447432618375712e-01  3.0628892613199149e-01 6.1393295431058561e-03 -8.2199425600348555e-02  -2.9269177337131697e-01 -2.1968236491078100e-01 -3.1942158940756182e-01  2.6949370847882115e-01 -1.2897460128120514e-01 -1.4141970540225479e-01  2.7763562982706574e-01 -1.7704847195956111e-01 -1.1418831519328372e-01  2.9863983870473010e-01 -8.7379275583556737e-02 -1.0101772367152172e-01  -2.7629205771758458e-01 -6.0337972841910330e-02 -2.9412520425485555e-01  -2.7961705388458963e-01 -1.4263878915891831e-01 -3.4154041921248651e-01  -1.2469431088830021e-01 -3.8827364794718161e-01 -1.8728282923439424e-01  -1.0095464795192825e-01 3.7961714423041587e-01 -1.0905507719973213e-01  -3.6882619531575643e-02 3.8441240515666891e-01 -1.3464460886338850e-01  -2.8388898136597940e-01 -2.8975577314049084e-02 -2.3705080464380338e-01  -2.3020400827166200e-02 2.4456882020259083e-01 -2.7535675347675714e-01  3.5422976170455013e-02 -1.0118893546676956e-01 -3.4221538953348363e-01  -3.0904363343109913e-02 -4.4847814522406056e-02 -3.7413655517016281e-01  3.9034924513770136e-02 -3.3678461065059728e-02 -3.3286685945857186e-01  2.9067696275507476e-01 -1.5206354721549221e-02 -1.1246620568985534e-01  2.5905566664701185e-01 -5.0029331094618532e-02 -1.5437058574330673e-01  -2.8243847575935721e-01 -2.7720577796941759e-01 -2.6606090312709546e-01  -5.7734451901066693e-02 -4.9914252613775995e-01 -1.8823165889462808e-02  -3.3454215669660192e-01 -6.7645793383261973e-02 -7.7093109455651357e-02  -3.4405278772738157e-01 2.7276951157346081e-02 -4.2026432374637719e-02  -3.0018792583286669e-01 -2.4129672442090774e-01 -2.1322282121725594e-01  -3.1415337694462936e-01 -6.3733479888787484e-02 -1.4074624353526791e-01  -9.2186170774898477e-02 4.2763515587282297e-01 -7.7067203038482968e-02  -1.6241608876701275e-01 3.5009362477535372e-01 -9.2924632505658036e-02  -1.5519677238255042e-01 -4.1712516482299739e-01 -1.2250454523826367e-01  6.1184451502050215e-02 4.2892664832284622e-01 -1.0880279415058709e-01  2.5812219138223222e-02 3.8445438976754248e-01 -1.5446793941812334e-01  1.1261483256344855e-01 1.8587278152791034e-01 -2.6587387520032435e-01  -2.4098667274959296e-01 -1.3405650243274533e-01 -3.7434303189491386e-01  2.7971665958351899e-01 1.6060959222341237e-01 -5.4701407540718269e-02  2.8640815571741318e-01 1.7945866639060759e-01 -7.4156342388145891e-02  2.5978885022721460e-01 2.6695801792683871e-01 -6.8040470863422881e-02  2.5649816848653567e-01 2.8926759113764777e-01 -7.9643715428585074e-02  -2.5011397244514194e-01 2.1349589225529692e-01 -1.0610990362641225e-01  -2.0841922447674813e-01 2.7010700140727673e-01 -1.1150702310188353e-01  9.4537381111302290e-02 -3.4960302357505568e-01 -1.6607410134449194e-01  2.2427379270342954e-01 -1.9372480782756130e-01 -1.7753138158665893e-01  2.1411889887103386e-01 -1.5874839040567032e-01 -1.9194797156697702e-01  1.0214756596784214e-01 -2.8295425533641672e-01 -2.4743554830727563e-01  -3.1864927637176965e-01 -1.4264714992165387e-01 -1.2519602821751027e-01  -3.1172998119734713e-01 -1.6594505425180558e-01 -1.8470183654247502e-01  -2.7341182019691435e-01 1.1475289448079101e-01 -1.3642090876160096e-01  -3.6426444122033902e-01 -7.7216790876772648e-02 -2.4952118678375230e-02  3.2240439992687248e-02 2.5160802203481691e-01 -2.7838978478391913e-01  -2.6839189747562692e-02 1.9463805652858615e-01 -3.1432946852584576e-01  2.1748205651095553e-01 3.6277958661817511e-01 -7.5281218882742071e-02  -2.0888692422537225e-01 -3.7752619602629600e-02 -3.5789397876393769e-01  -1.6116444680836589e-01 5.5203559875104349e-02 -3.4123825322127938e-01  -2.4225004511131604e-01 -2.8322482881698089e-02 -3.2237182572734041e-01  -3.7852401916968614e-01 1.2864174172447984e-03 5.4695039868239129e-04  -3.5028938299891638e-01 1.1696810564236147e-01 -1.2091901789991890e-02  2.8377301656546244e-01 4.3516413529174777e-02 -3.2883667134000628e-02  2.9286110964028639e-01 8.7653586282442006e-02 -6.3326813276968957e-02  -2.9066513801879601e-01 -1.9208267706701605e-03 -1.8111756895108241e-01  1.7549399274681099e-01 -2.2476908971634774e-01 -2.1505961235000978e-01  1.1104121554786947e-01 3.6407062924211570e-01 -1.7085192639388594e-01  2.6445721901668089e-02 3.4592791838971171e-01 -2.0045676048872205e-01  9.8495371738212947e-02 3.9480690957277492e-01 -1.4379975620052765e-01  6.9317942598172089e-02 3.1730038275395162e-01 -2.2389471906899727e-01  3.8427711168762084e-02 2.0802961022871649e-01 -3.0040589831604780e-01  -1.5494037395145002e-01 -3.5460476526669393e-02 -3.8842925608342888e-01  2.6757048423365726e-01 1.6733908445245840e-01 -1.2561402454228088e-01  2.8851852775301662e-01 9.0369245915928959e-02 -1.0029129381640346e-01  2.9548637557094382e-01 1.1825169582896985e-01 -7.8650665896665833e-02  2.7406275148205983e-01 7.1349847920974249e-02 -1.3499455300147445e-01  2.2813066098404616e-01 -2.1584332843544399e-02 -1.8549488343647813e-01  2.5202368959136873e-01 3.6353203186026445e-02 -1.6613079950695350e-01  1.3995842260148741e-01 4.1106376337071537e-01 -1.0891375141814334e-01  -1.7086802585451644e-01 -3.6212786041580053e-01 -2.3768370387417126e-01  -4.9109952138257612e-02 3.1712791787424160e-01 -2.0579800446050509e-01  -9.4309193985292861e-02 -3.2674599720217834e-01 -3.0932892458800859e-01  -1.5410833977478422e-01 -3.0142783735292605e-01 -3.4601476862835284e-01  -1.2045497072350539e-01 5.1798049393801643e-02 -3.6607869646793045e-01  2.0764277730266761e-01 4.3340803783226876e-02 -2.0511057207290875e-01  -6.3184413610733001e-02 1.1527731382273396e-01 -3.5222812177148494e-01  1.2823016043152360e-01 -3.0306690619170418e-01 -1.9617605409818725e-01  2.6378287337968820e-01 2.3342300739103281e-01 -3.8427286310409009e-02  2.0492480419594550e-01 3.7534546544630776e-01 -9.1180863867423370e-02  2.4561112670671656e-01 2.9928412660516412e-01 -2.4285727030526925e-02  1.8474649947226460e-01 3.6352328243477350e-01 -1.2608669851149099e-01  3.0174424861485943e-01 7.1950365318774148e-02 -7.3712377047212618e-02  5.9838637320542856e-02 4.5442838632632554e-01 -8.6339164406603497e-02  -5.1836943462571235e-02 3.8639138613705229e-02 -3.6525950407298047e-01  -9.5254792770776808e-02 -1.2990166169560070e-02 -3.9497773766235983e-01  -6.2666452437845823e-03 3.2344806117800870e-02 -3.3541527679279753e-01  1.2060111099202650e-01 -1.0203985250611779e-01 -2.7855668816816320e-01  1.0510256581746878e-01 -1.7610395454611982e-01 -2.8039320249250682e-01  5.6391232477596628e-02 -1.5971811213293924e-01 -3.1969194438691728e-01  2.7942470317206480e-01 1.2407938796057073e-01 -1.8742773837850439e-02  2.1502207415177832e-01 -9.6453232590055255e-02 -1.9339989279491765e-01  1.5237138388200738e-01 3.2680758311918973e-01 -1.8428963617359759e-01  -2.4859287302169039e-01 3.1930640288861861e-02 -2.5695939094426901e-01  1.2746571076319166e-01 -2.2481234481586110e-01 -2.5670243791931424e-01  1.8369457726100410e-01 -5.8498933507331347e-02 -2.2231253526077654e-01  1.7350378299224819e-03 3.0256677528867892e-01 -2.3659778005473861e-01  1.0652067440750441e-01 -1.8478069420273545e-02 -2.8593636432658265e-01  4.7702663878646294e-02 4.0451401622054892e-02 -2.9906259076774877e-01  1.1607290778124070e-01 6.0196464612452157e-02 -2.5480934944841682e-01  1.5631114933888757e-01 7.1670314728714005e-02 -2.3492728368630295e-01  1.0486119413379261e-01 1.1954150611464752e-01 -2.6898064207089784e-01  4.1889117904819063e-02 1.3086340723611439e-01 -3.0185356763659249e-01  -1.3318950275439532e-02 1.1722653814491585e-01 -3.3369147352644546e-01  1.6308787108283834e-01 -1.4774849736938012e-01 -2.3544881241094887e-01  1.5483620391662722e-01 -2.3171122815578938e-03 -2.3882893580246667e-01  1.2066257179327931e-01 3.2267316889254024e-04 -2.6820948484538237e-01  1.2820158562454170e-01 2.5162890518523596e-02 -2.4028065229254672e-01  1.2159996179971092e-01 -1.4718496116998755e-02 -2.6891504539186589e-01  1.5430091081043201e-01 2.4596664684148900e-01 -4.7316002780467659e-02  1.7753369938757477e-01 1.6036587006824846e-01 -4.3298004486192483e-02  1.5658438475538822e-01 2.1800906480043583e-01 -6.6810074386874474e-02  1.2464383277784943e-01 2.6586542295216836e-01 -7.3746176205760655e-02  9.5196041088754929e-02 3.0622797862723306e-01 -6.2845772374836101e-02  1.2751894203502495e-01 1.2268789428554430e-02 -2.4471844047813282e-01  1.5114033319491074e-01 -1.6954875532068486e-01 -6.1367938686362151e-02  1.6304162467309158e-01 -1.2907269216200007e-01 -3.4879030371950788e-02  1.3335338716961914e-01 -2.1137396458169203e-01 -3.8349788550406903e-02  -2.5752528043981682e-01 -8.5513923342978984e-02 -6.0796560042414086e-02  -2.5636748565290796e-01 -1.5828472964512738e-01 -5.5478238933298930e-02  -7.9778054935018841e-02 -3.4907748742606859e-01 -6.651