<?xml version="1.0"?>
<VTKFile type="UnstructuredGrid"  version="0.1"  >
<UnstructuredGrid>
<Piece  NumberOfPoints="625" NumberOfCells="1871">
<Points>
<DataArray  type="Float64"  NumberOfComponents="3"  format="ascii">-0.01923410462902653 1.456513732582362 -1.074356034996123e-15  0.04596531834885444 1.818271233059919 -1.069062000944945e-15  -0.6098141688517347 1.540658606695754 -1.086761305577893e-15  -1.142166093921094 1.360028618221945 -1.078616436416286e-15  -1.582101282020974 0.9896691226940679 -1.076894542395554e-15  -1.781991650074733 0.4520432994817635 -6.588296728159801e-16  -1.728402400800602 -0.1192529263662405 -6.461290329480168e-16  -1.441045014429501 -0.6262729286751968 -1.914346643897742e-16  -0.9942060213510535 -1.003987980078331 -2.192874307619157e-16  -0.4370931295734216 -1.1909363155979 -2.264335480253453e-16  0.1509446784309618 -1.118938672312454 -2.184999116691075e-16  0.6995824493935584 -0.8836517900373104 -2.262579449026727e-16  1.132045708330518 -0.4918774053895038 -2.288070993381814e-16  1.368747136858061 0.0198114207355326 -6.855410929354232e-16  1.350096397545581 0.5752337095990291 -6.794694351621587e-16  1.04471854197807 1.043343478602855 -1.105989081970764e-15  0.5669519883939637 1.352450754697494 -1.101980692071125e-15  -0.5497043239526139 1.804092998714622 -1.061334549930162e-15  -1.116764532011666 1.656913642971919 -9.948534995792375e-16  -1.608253784212665 1.332005765466151 -1.006252171325097e-15  -2.005636733790297 0.8901980989438807 -1.094972680280923e-15  -2.251645001998122 0.3356663853701127 -6.554412597611673e-16  -2.323512082254597 -0.2785843469964973 -6.403867798644345e-16  -2.165997382599955 -0.8899532866879093 -2.482594132916377e-16  -1.808772001504693 -1.414790894976053 -2.03685532684637e-16  -1.319269750679621 -1.823315642688453 -1.950710792781738e-16  -0.7280823513913474 -2.06896571808848 3.096239453627551e-17  -0.09173248858713728 -2.148205057780406 -3.326800834331615e-17  0.5432847727825004 -2.06047617189106 4.850536641432426e-18  1.130854045703108 -1.808182600906408 -2.182945019593966e-16  1.644633558366365 -1.430491275758601 -2.224466973044514e-16  2.058140075492062 -0.9435200231050576 -2.282564556992269e-16  2.345766151241827 -0.3735003173173602 -6.595478700065781e-16  2.457710984375883 0.2668511267787713 -7.018629544068895e-16  2.291428238867276 0.8961448286689814 -1.137483386661267e-15  1.875205787504792 1.404024387355276 -1.089455489731535e-15  1.294640762088098 1.708401281846027 -1.096226253414037e-15  0.6627211924009058 1.82037546592917 -1.047429444910171e-15  2.098637859799885 0.5630933585500838 -1.686474831658506  2.093038113650854 0.4770561399294252 -1.13076300856078  2.232163905062832 -0.09008606350418341 -1.489296882544309  1.904483125367519 -0.5805628589074767 -0.9110966324661316  1.607273040947622 -1.196075140559969 -1.172520582037057  2.035089500896005 -0.7394778592463535 -1.458707238617451  -1.134229065822065 -1.394662210056797 -2.968968631751306  -1.375279416051832 -1.399023743344506 -2.139602184890922  -1.68566503048085 -0.9591937633578926 -2.646011920614413  1.093754800906446 1.553126709816299 -1.215390160510982  1.454095068266498 1.329502052994567 -1.511818655240259  1.037111406932009 1.517725528461319 -1.77861803388525  -1.139777843751779 -1.473418433673706 -1.016234829854817  -1.605137946514627 -1.008051298619717 -0.7879592649664899  -1.590632099893251 -1.218535332800851 -1.475752835940089  -2.109732668654529 0.53798137160368 -2.81000409629528  -2.09208059803718 -0.004703591759082248 -2.773252967218851  -2.171159162144054 0.2655987134744192 -2.207721918574218  1.400148809892319 1.339852995977045 -0.9343959577348249  -1.601060301283556 1.206086415449047 -1.905830627109762  -1.953429237181595 0.7871629426413815 -1.914979528115807  -1.84656003101445 0.8849721531229779 -1.252650414728091  -1.934224889523164 -0.7377943880302966 -1.235665269181991  2.049261193379108 0.04933758871814737 -0.9055830644093088  1.79085846230188 0.4634667816201273 -0.5504444713761433  1.767050824855848 -0.09833605092832826 -0.5142337050961762  -0.3560203634407688 -1.869877073651442 -1.742059624482126  -0.3791888516433634 -1.860129057895819 -2.373188084244577  0.1316368959419947 -1.936197504028519 -2.120369532804308  1.870986948751027 -1.109669480341854 -1.873949404585767  -0.8902535606176867 -1.665368950349543 -2.47617784407189  -0.536350014395821 -1.726328990945517 -2.967928801942437  1.423416907166156 -1.479502904135037 -3.179511047708036  1.950272140532598 -0.9644228755214139 -2.994588865968317  1.627689781720599 -1.373435860846934 -2.448747339756893  2.278267695733204 0.4107593298417404 -4.056592125126843  2.245617982594377 0.609937188920129 -4.84779448210917  2.044991358994568 1.007567370965083 -4.146043013393157  -1.980969251956165 0.09233036359768852 -0.57501880209432  -1.858632873552468 -0.4858470153983594 -0.6435631231532695  -2.074971940137298 -0.1785344755111209 -1.106494351330946  1.332986500549655 -0.8672046744776819 -0.5037757265952202  -1.698812022997313 0.6058265866480778 -4.232882338810823  -1.881666796247348 0.6242286181050938 -3.776262998907526  -1.696081636803665 1.058087539078774 -4.015975939138846  -1.481352374978616 0.3232743350215063 -4.593188506713139  -1.056860735448492 0.008721732058587561 -5.075284227945171  -1.351919969630358 -0.2509926846338971 -4.378500696807325  -1.927496862637081 1.031844069058696 -3.267589585511442  -2.036634529869141 0.390528688641636 -1.156357848379097  -1.91130170900218 0.674730304189053 -0.6514449214786063  -1.631151721850386 1.226578466922467 -0.6125350870440932  -0.323526184091719 1.864338102660591 -3.849169156647054  -0.4204408745631641 1.819034828786835 -2.96673012283114  0.194333761548807 1.751943979544077 -3.306683532743338  0.160224967083248 1.698212789768116 -2.604629682703964  1.791963945891536 -0.909460839310108 -4.27681762353517  1.295030526504843 -1.107127522447324 -4.640909485484197  1.629110848124593 -0.7795237794268536 -4.998610280621429  -0.7567318995087828 -1.709675308929204 -1.327952014053708  -0.736543411521879 -1.473499889928999 -0.6094650274035515  -1.9300578544286 -0.7803647050713192 -1.937873631844864  -2.088972864151083 -0.3972923189813066 -1.569471004689433  1.36050128519034 -1.321201392743111 -3.980813811687293  0.4067299711462144 -1.705686928771866 -3.620918567790201  -0.1175242146316109 -1.71407240310046 -3.47972480041706  -0.06398416468812598 -1.456408411097216 -4.113423377998744  0.2750188140736673 1.81564154027993 -0.6927360989435423  0.8412784565642404 1.639285502263076 -0.7345835950544493  0.5277097893631554 1.735111623039682 -1.328377771724579  -0.8163147455141122 -1.725557583725254 -1.946014084250253  1.779765965221979 1.028988543639094 -1.764133046876851  1.935297447409012 0.7821499832426422 -2.372328271683307  -1.537117878808467 -0.9340443253038508 -3.163143288341177  -1.839137170673774 -0.5316192510995608 -3.039496847611477  -2.038346780711747 -0.4093606285296184 -2.416833925392497  1.819156948464145 0.9846396715240435 -1.153924989352667  2.211476587675008 0.08400790849889078 -2.286606587619066  -2.140089545053986 0.02035234801741179 -1.649623471104123  -2.059029016020382 0.478304627917651 -1.6426787777963  -2.131481373574589 -0.2844837164149063 -1.99113018067566  1.508360202164604 0.9165916677488796 -0.4600733914557439  0.08105710325836166 1.695118002572656 -1.886530833488016  -0.4740162752923021 1.682811621100988 -2.161665803577448  -1.183993150113836 -1.535118658227062 -1.588320124793762  -0.1736629297760218 1.813925278608274 -1.298684298498645  -0.2401799593592077 -1.796491695800556 -1.093558886892098  0.7150297892373351 -1.456805351826629 -4.238353509321176  2.141649094650173 0.6940459682328259 -3.618251421197474  -0.6263488451986995 -1.497567267274055 -3.59616736812883  0.5781697639693884 -1.42297511989689 -0.6142871816890811  1.078935399383174 -1.236727581496172 -0.6732834796637549  -1.226310944581377 1.587107302620863 -0.7938880275297553  -1.511411931120345 1.307298936328255 -1.201219603494768  -0.03813900832133577 -1.539220723560985 -0.5836596647792636  0.0590974809203889 1.714651052029036 -5.188800895561382  -0.5252366848315047 1.601456610539178 -5.155623542203745  -0.2646023108936113 1.830656137617935 -4.658546586929458  -0.2700414775913502 -0.9754096233870428 -4.769567900926845  -0.6933932454809363 -1.121446807199732 -4.179851376194792  1.129680620487275 1.362764978690023 -0.4860952489529511  0.6641913801493682 -1.86475052500898 -2.477212978807557  0.5829883017297526 -1.892489647502244 -1.848564434299148  1.106709241552497 -1.73152496436806 -2.168303286522291  -1.884051877403716 -0.15694025738205 -3.378949610709984  -1.550701574345952 -0.5595637575372118 -3.679326153744739  -1.13473996954822 -1.108955384956607 -3.626142896179985  -2.042466939263292 0.3393771380065572 -3.339473467029954  -1.225847929429691 -1.150446727049845 -0.4753961215913563  -1.095277389507735 1.667358377924801 -2.687236743181692  -1.035282752727998 1.36675841155936 -4.979212481319703  -1.24547065599842 1.490709361174634 -4.303487713479181  -0.7512435763699223 1.731418790178344 -4.497122856186593  1.487906011985135 1.220827810507828 -2.192033131052238  2.172021084322262 -0.5509088602993508 -2.062932365956032  -0.3675685781428552 1.859127724047114 -0.579146339495023  -1.147002347041277 1.533041711935202 -1.395012928300642  -1.961161482034971 0.919945744458703 -2.478584919518429  -0.912279242836103 1.757483960936603 -3.910614284278823  0.08664552121841024 -1.910545575954057 -1.587133007983832  -1.17237795070203 -0.7561377368300259 -4.113201384046711  0.4546316187225764 -1.777761134538445 -1.169388895200025  0.9547489830315938 -1.763864103278875 -1.601657027559295  1.426834515468065 -1.53053227629874 -1.793020143079243  1.088392184626904 -1.572329278122943 -1.134195469686563  -0.461667263092424 0.8031280035076905 -6.066149406851697  -0.2166196068354713 1.156298507684077 -6.055457497305982  -0.04392316953020139 0.8333083118151812 -6.453592592258048  -0.8178873521447592 -0.5954408539415784 -4.77404654
[...]
<PointData  Vectors="f_2915668-0"> 
<DataArray  type="Float64"  Name="f_2915668-0"  NumberOfComponents="3" format="ascii">4.2255797288330441e-02 4.9685252843085403e-01 0.0000000000000000e+00  3.7040161292303517e-02 4.5750293839408029e-01 0.0000000000000000e+00  -8.0957462616801742e-02 4.8457676292427232e-01 0.0000000000000000e+00  -2.0738860605404127e-01 3.9893914019660343e-01 0.0000000000000000e+00  -2.8271940720795058e-01 2.6549669350963923e-01 0.0000000000000000e+00  -3.3558227547054403e-01 1.2074469267879319e-01 0.0000000000000000e+00  -3.6053009087276466e-01 -3.6350579332330372e-02 0.0000000000000000e+00  -3.5168129375020363e-01 -2.0092406807583191e-01 0.0000000000000000e+00  -2.9373297198262349e-01 -3.5011355184590331e-01 0.0000000000000000e+00  -1.8700306597897437e-01 -4.5408008665312966e-01 0.0000000000000000e+00  -5.2567343334800912e-02 -4.8765377083876549e-01 0.0000000000000000e+00  6.7116968810882707e-02 -4.3631161092368315e-01 0.0000000000000000e+00  1.5290378016307499e-01 -3.1564828668490430e-01 0.0000000000000000e+00  2.0350378458690849e-01 -1.5586798176493830e-01 0.0000000000000000e+00  2.2571522254172618e-01 2.0651535656233514e-02 0.0000000000000000e+00  2.1188541437303260e-01 2.0866240888142037e-01 0.0000000000000000e+00  1.4690738963737759e-01 3.8564635427235550e-01 0.0000000000000000e+00  -8.3568332799147382e-02 4.5413385704090414e-01 0.0000000000000000e+00  -1.8408584984178417e-01 3.8026182565473177e-01 0.0000000000000000e+00  -2.4764252544978174e-01 2.6860203801640886e-01 0.0000000000000000e+00  -2.7360179655065270e-01 1.4555081386684740e-01 0.0000000000000000e+00  -2.7215343084078281e-01 3.7243408450648441e-02 0.0000000000000000e+00  -2.5764607375303783e-01 -5.1125847181503460e-02 0.0000000000000000e+00  -2.4846323739934256e-01 -1.2274387517115999e-01 0.0000000000000000e+00  -2.3663800511598249e-01 -2.0175666357631553e-01 0.0000000000000000e+00  -2.0107643976618478e-01 -2.7553394768575390e-01 0.0000000000000000e+00  -1.4412997662743654e-01 -3.2982225771050544e-01 0.0000000000000000e+00  -7.7847810115620697e-02 -3.5750896154549455e-01 0.0000000000000000e+00  -4.4934424358062212e-03 -3.5393664510309836e-01 0.0000000000000000e+00  5.8555361915703562e-02 -3.1328861708411082e-01 0.0000000000000000e+00  9.8845169581741762e-02 -2.4661469758724380e-01 0.0000000000000000e+00  1.1259347408608096e-01 -1.7065311138756517e-01 0.0000000000000000e+00  1.0756724425904814e-01 -9.5351436639459039e-02 0.0000000000000000e+00  1.0086932629781134e-01 -4.4457072165769246e-02 0.0000000000000000e+00  1.1473735218435473e-01 3.0212609340408681e-03 0.0000000000000000e+00  1.4594423520267671e-01 8.2912495626430285e-02 0.0000000000000000e+00  1.6185717916638565e-01 2.0053665778031068e-01 0.0000000000000000e+00  1.2910891509977040e-01 3.4612334730984584e-01 0.0000000000000000e+00  2.7423335997058523e-01 8.7367624708106217e-02 -1.0821179898636965e-01  2.4895629968973201e-01 2.7999190429476819e-02 -4.6488496296799568e-02  2.5496927203626679e-01 -6.9864779719328224e-02 -8.4305655576454946e-02  2.1842480067218775e-01 -2.0710161213810466e-01 -1.1184548168517071e-02  1.7930463366437466e-01 -3.2142732645119115e-01 -4.5072985606757494e-02  2.3372401369710946e-01 -2.0641711671205398e-01 -7.8144162940828918e-02  -2.5328249165097916e-01 -3.9636048284599651e-01 -3.1407306177210126e-01  -2.7857361194530028e-01 -3.6153894151593480e-01 -2.0719953046907724e-01  -3.1881861155424279e-01 -2.9259590570976240e-01 -2.7117680411843292e-01  1.8913975707734318e-01 3.5389714899959351e-01 -8.0645172278510369e-02  2.3158496794119546e-01 2.9859186509904923e-01 -1.0270711400277938e-01  1.8952049317248457e-01 4.0763784039627377e-01 -1.3461212514145565e-01  -2.5698214229601507e-01 -3.7539135718414568e-01 -5.8581572446371522e-02  -3.1991860803459726e-01 -2.5391005702246378e-01 -3.4299072486331038e-02  -3.0311093512607812e-01 -2.9813222596123123e-01 -1.2113094744461152e-01  -2.9170523029548406e-01 2.0320457750529746e-02 -2.4862925766033930e-01  -3.2575021098304657e-01 -9.4534119644816936e-02 -2.6337532012315423e-01  -3.1065525314392717e-01 -1.1029580032116990e-04 -1.9520321266034735e-01  2.1924989650775209e-01 2.5534450992849594e-01 -4.1894989756078492e-02  -2.3609729364639442e-01 2.5600518700836294e-01 -1.5158226562390592e-01  -2.8258171580881392e-01 1.3786675035086415e-01 -1.5676318712216505e-01  -2.8243996678345262e-01 1.7618695453263167e-01 -1.0224427966896148e-01  -3.2878911919166037e-01 -1.7521824473584488e-01 -9.2092382095810610e-02  2.4172959082575995e-01 -7.5202954200680960e-02 -1.4840945287452454e-02  2.4098690688582183e-01 5.5531116417220196e-03 1.5657187201177723e-02  2.3125125652001391e-01 -1.3185279842783693e-01 2.6335292194851184e-02  -1.3190110200540672e-01 -4.6435377889741986e-01 -1.4508550950538956e-01  -1.2933493028138757e-01 -4.6655673390456942e-01 -2.2736907633995249e-01  -4.6286144888393457e-02 -4.7254566977328094e-01 -1.8909169112059643e-01  2.2347716906514170e-01 -2.6968541058841849e-01 -1.2941823264749525e-01  -2.1083562597139544e-01 -4.3051567038068994e-01 -2.4691608036520785e-01  -1.5346252466278787e-01 -4.5203906100375979e-01 -3.0489721757863725e-01  1.8066312844495624e-01 -3.3671999221046489e-01 -2.7611602686862119e-01  2.5654952285042043e-01 -2.1379983804292457e-01 -2.3442246168048686e-01  2.0543660353976215e-01 -3.2123687260677464e-01 -1.9860515717062976e-01  2.9204059748017880e-01 8.9411846737062053e-02 -2.7575580381491965e-01  2.8183117863709906e-01 1.2910329916416841e-01 -3.3468764256764377e-01  2.8191457368142986e-01 2.3230741023105753e-01 -2.7604391560345110e-01  -3.3597606322363965e-01 1.0884664093448241e-02 -2.4271530186442788e-02  -3.4318255668707792e-01 -1.2840497070641080e-01 -2.2191706078191750e-02  -3.3245044185114908e-01 -5.1802911340874835e-02 -7.8129522151218433e-02  1.7495564523091980e-01 -3.3039497066648554e-01 2.9474115816900407e-02  -2.5776940598846648e-01 -3.4930242780469377e-02 -3.8982187941186952e-01  -2.7128231575386930e-01 -1.4248402132320629e-02 -3.4683064254196927e-01  -2.2706651286861951e-01 7.4650360082097592e-02 -3.4452822980293596e-01  -2.5759241074677763e-01 -1.0615297755158869e-01 -4.4289753873855997e-01  -2.2526073299574476e-01 -1.7978257144316931e-01 -5.0717194707347157e-01  -2.8046886818428440e-01 -2.2702815274066437e-01 -4.6125013282648947e-01  -2.4656000500442346e-01 9.7905183267266563e-02 -2.7765737437213528e-01  -3.1707875523334939e-01 6.8866255657447362e-02 -8.6973541292923118e-02  -3.0454867853156958e-01 1.3383930472705471e-01 -4.0275929552787047e-02  -2.5011055361924173e-01 2.5259688324868013e-01 -4.6121537933927204e-02  -2.9943294200662249e-02 4.3321394083686082e-01 -2.8202060566620901e-01  -3.1583059654463494e-02 4.6162523973211128e-01 -2.0734525799204545e-01  7.1723275330869682e-02 5.0858166493066925e-01 -2.2364590892759084e-01  6.3963470299828587e-02 5.0976084773856656e-01 -1.8303849354347379e-01  2.3404697528371801e-01 -2.0785402444352552e-01 -3.5362110102193239e-01  1.6391891441869763e-01 -2.9068097874830695e-01 -4.1677620563379147e-01  2.1110331431045062e-01 -2.1053127492886925e-01 -4.1212109871250313e-01  -1.9871899104748142e-01 -4.3267067879016474e-01 -9.3681141833688836e-02  -2.0940556600068722e-01 -4.3176707627866800e-01 -5.8316255019838338e-03  -3.2958634381166257e-01 -2.1199417641556048e-01 -1.7947807414191555e-01  -3.3072405580319975e-01 -1.0999374704830313e-01 -1.3225800177194691e-01  1.7325762374213119e-01 -3.1211297349069012e-01 -3.5791832691838560e-01  1.4570481091531187e-02 -4.2862978510133287e-01 -3.6119465709594012e-01  -7.8088757337604758e-02 -4.4669826041375976e-01 -3.5906956530621320e-01  -7.2111678145411501e-02 -4.2074843863623634e-01 -4.3560549177653729e-01  7.7021435881046013e-02 4.3055931641710138e-01 -3.9462061349161165e-02  1.5777243571883809e-01 3.6169157948481612e-01 -3.2344038671046516e-02  1.1039751012627373e-01 4.4535238731510257e-01 -1.0450996106767234e-01  -2.0298520678363602e-01 -4.3645501730626607e-01 -1.7671074433039963e-01  2.6415603566266760e-01 2.2327960017956350e-01 -1.1964639830856999e-01  2.8938554684634032e-01 1.9295474464741078e-01 -1.6308410354872233e-01  -3.0776307659388541e-01 -3.1333732651866175e-01 -3.3829045575438071e-01  -3.3257118337176639e-01 -2.2313513184500966e-01 -3.1361225674249382e-01  -3.3462350977879707e-01 -1.5952759879338396e-01 -2.3411792609549076e-01  2.4595378342119104e-01 1.5488850873217869e-01 -5.5714020146790832e-02  2.9111489149715075e-01 1.0186182719042591e-02 -1.5821674979989578e-01  -3.2452633354735705e-01 -2.2281504961554340e-02 -1.3860110856664126e-01  -3.0837625821442177e-01 7.5620124962693755e-02 -1.3560266942132299e-01  -3.2991670121992756e-01 -1.0327830972011631e-01 -1.8120883800172197e-01  2.3833051747003803e-01 1.3714299436937130e-01 1.8837893911663881e-02  4.0400585998256980e-02 4.9549421166679741e-01 -1.5168335548299228e-01  -5.3826609045558568e-02 4.6677708560284176e-01 -1.6077271984355340e-01  -2.5520072385130488e-01 -3.8281362540075747e-01 -1.3313123307944477e-01  -7.5761883913933242e-03 4.6216248413044370e-01 -1.1234804526287098e-01  -1.1693127971169749e-01 -4.6533664984236373e-01 -5.7581358323154509e-02  6.8731511465762174e-02 -3.7806958435104643e-01 -4.1513073931458666e-01  2.9616202930683933e-01 1.6603257420461390e-01 -2.3595216418546930e-01  -1.7064176262663358e-01 -4.2609013628564030e-01 -3.8536877802130215e-01  3.9833455304823566e-02 -4.6718564590377698e-01 1.4796909584412024e-02  1.2321605666607045e-01 -4.0098252918635535e-01 1.1961416123893788e-02  -1.8626616215042222e-01 3.4066420367451089e-01 -6.9504981601790111e-02  -2.3204475570924019e-01 2.7956307181451290e-01 -1.0574833856449500e-01  -7.9270633634801413e-02 -4.8569154507239548e-01 7.0212624195810248e-03  -2.6513329700482837e-02 3.5796025139176307e-01 -4.0922981610648268e-01  -1.0490587738972623e-01 2.4974405171134439e-01 -4.1232260513011321e-01  -5.2996692363843953e-02 3.6590794421781569e-01 -3.6132303210985900e-01  -1.2104386406029605e-01 -3.7260896662147130e-01 -5.0699553333229219e-01  -1.9047047088898533e-01 -3.8868949376623613e-01 -4.5930992915151592e-01  2.0099966007525039e-01 2.7694013969274978e-01 2.9758438781689214e-03  5.0871148481983951e-02 -4.4881081414164659e-01 -2.2473441340495284e-01  2.5123716401878549e-02 -4.5626802983673959e-01 -1.4854010586342214e-01  1.1877895562876722e-01 -4.0969077790169262e-01 -1.8116811968334606e-01  -3.2453824399417347e-01 -1.6356155728839902e-01 -3.4341530369926881e-01  -3.1181137301730982e-01 -2.6403819028200698e-01 -3.9718408576811104e-01  -2.5930047513856175e-01 -3.6858553385724635e-01 -3.9758591080145639e-01  -2.9733302367878339e-01 -5.2959764540955058e-02 -3.1319363374555437e-01  -2.9527880863686157e-01 -3.3787828084824778e-01 7.1029727398981817e-04  -1.4265599107981497e-01 3.6006075336784282e-01 -1.9595215053102727e-01  -1.5726400820938230e-01 1.4463118770526009e-01 -4.0487648380291597e-01  -1.7314675789410450e-01 1.9089297132469016e-01 -3.4873916143889416e-01  -1.1544779752439016e-01 2.9141547688440672e-01 -3.5273050469836348e-01  2.5166214011976545e-01 3.3364910272372389e-01 -1.5653986302238676e-01  2.6680556872340205e-01 -1.3806560274125251e-01 -1.4326673862521400e-01  -3.1833239422147511e-02 4.4097926552383393e-01 -4.1172528059870324e-02  -1.7589241679840564e-01 3.5873482113017080e-01 -1.2251202647819912e-01  -2.6775422677722627e-01 1.3075350324171753e-01 -2.0482801664500241e-01  -1.2206350266765777e-01 3.2042032285934741e-01 -3.0321487005440595e-01  -6.0195374399496605e-02 -4.7035774240706801e-01 -1.1908736232576357e-01  -2.6549377292464293e-01 -3.1973773487005941e-01 -4.5067024350233648e-01  6.4354525084096002e-04 -4.6502774379270190e-01 -5.7071989582702522e-02  8.1221543075387023e-02 -4.2547456510829945e-01 -1.1221169189838798e-01  1.5977828521708123e-01 -3.6514201352331732e-01 -1.2908142705709388e-01  1.0168176711609597e-01 -4.0861303365971324e-01 -4.7269144975638722e-02  -1.2184748239695571e-01 3.5534040174116828e-02 -5.0018811142975583e-01  -9.9787917038841004e-02 1.4472069906277862e-01 -4.8095507686698830e-01  -8.6750457014717980e-02 6.7680871280166782e-02 -5.0960993385610776e-01  -2.1267237667847591e-01 -3.0633746644571119e-01 -5.1011029101727579e-01  -2.1696918842731078e-01 2.4383272512177989e-01 -1.9943798432405666e-01  -1.6050488681822339e-01 3.6728291895744880e-01 -1.5899749254288081e-01  -1.3754236161697905e-01 1.0975865738235718e-01 -4.5673437171548753e-01  2.9805983674518916e-01 1.9308860916017515e-01 -1.9866986484358182e-01  2.7160340023730051e-01 3.3253053867556503e-01 -1.9455647096136233e-01  3.7257730957854038e-03 3.4137925084559378e-01 -4.4619238510269954e-01  -7.7550296322255061e-02 2.4813058002453373e-01 -4.5307364967746416e-01  -4.4020883439294105e-02 2.1374397121985789e-01 -4.8273928734270394e-01  -1.2920415066782845e-01 4.0389632916591572e-01 -3.4169366722198426e-02  1.6278204448595204e-01 4.9489754811573905e-01 -1.9867246156166021e-01  2.2803109124746565e-01 4.2427783573857214e-01 -1.8619629920227501e-01  1.7670864923034912e-01 4.6434368864432413e-01 -1.7226088985131260e-01  2.8657929335469001e-01 2.6762955733217425e-01 -2.2408560139655936e-01  2.4777034217277530e-01 3.7539040954039887e-01 -2.4299576142584367e-01  -1.0425005937386202e-01 4.3239107483615541e-01 -1.3378566835743358e-01  -1.0708917627495231e-01 4.1274474164640085e-01 -9.1690810532094852e-02  2.1900845719937770e-01 4.4329555606269205e-01 -2.1032853606551827e-01  1.5055348509829561e-01 4.8545739574664376e-01 -2.5155851457409617e-01  -1.1376785862629477e-01 3.6096354567340516e-01 -2.5074552881361123e-01  1.1873675643935724e-01 4.8351280327980511e-01 -1.5660984672110612e-01  1.1106057889956375e-02 9.3850375506573880e-02 -5.0557737346215703e-01  -4.8337858192181449e-02 9.6996180267168927e-02 -5.1309921345875498e-01  1.7948446728128104e-04 1.8554548482262931e-01 -4.9738554406438285e-01  9.8112237490758772e-02 3.8269073028899986e-01 -4.2744345890802937e-01  4.4913123507095656e-02 2.9746051316095973e-01 -4.7478756199740080e-01  2.3072307736533107e-01 -2.4238764552975500e-01 -3.0165839452674792e-01  2.6723075089717352e-01 -1.4956768012845287e-01 -2.8089850408153150e-01  -1.8881628815908014e-01 2.0916274073991498e-01 -2.9847807134429871e-01  -2.0760635812013015e-01 2.9300753899997870e-02 -4.0200151470552697e-01  6.9004216469316884e-02 4.2096271287861275e-01 -3.9433822344768210e-01  1.9950541505657915e-01 -1.0797770838545431e-01 -4.7150365342089795e-01  1.9504810240798506e-01 -1.8307820216236045e-01 -4.5061029218397913e-01  1.3369779833884002e-01 -2.1517441871324106e-01 -4.9682442113690400e-01  1.2420757774296241e-01 4.5275835357305738e-01 -3.2965992874702843e-01  1.9213413718244526e-01 4.2669809722325608e-01 -2.9488091761114127e-01  1.6794198756902551e-01 4.0352920676571602e-01 -3.6831362814869323e-01  1.3275457874796784e-01 -2.8469991749434981e-01 -4.6218044207776898e-01  2.7670381258038262e-01 -2.4515282078718031e-02 -3.5620532989350184e-01  2.9002591102470654e-01 9.2174682853222861e-03 -3.1233722387070445e-01  2.8226391655450772e-01 -1.1273113041071216e-01 -1.8838939048670408e-01  -3.0371337603714532e-01 -1.3374090842291131e-01 -3.8870174265107937e-01  -3.8538019410086603e-02 -4.6235871774480919e-01 -2.8217746516019643e-01  8.4103561447460340e-02 -4.2055395414686614e-01 -2.9408173372957197e-01  -1.9048805026981161e-01 2.4802168655291312e-01 -2.4637390188837718e-01  1.3359079463710535e-01 -4.0005848173302666e-01 -2.3617274358501578e-01  2.7523328095631394e-01 -1.0257401382425678e-01 -3.2201403102817489e-01  2.1298332080217172e-01 -2.2903375236994089e-01 3.1984524951566978e-02  2.5860782327360049e-01 5.7107996446881720e-02 -3.8996807375682291e-01  2.3968432058514766e-01 3.4042491767254229e-01 -3.1075553381300514e-01  1.5639082706626073e-01 1.2629579099748961e-01 -4.7699028729894444e-01  1.8216678652705540e-01 8.4588418355136820e-04 -4.9657417849137259e-01  1.0940887508358614e-01 3.2215638409948004e-02 -5.1907728403461129e-01  2.5436305145586124e-01 -1.2969398149109673e-01 -3.7057809306061634e-01  -2.0978579742521669e-01 -5.9787324881568023e-02 -4.6368315172185925e-01  -1.6538367765921441e-01 -4.9399833233467791e-02 -4.9979773679795647e-01  -1.3674059825070256e-01 -2.9760643984173707e-01 -5.3785227241888001e-01  -6.0628338654852371e-02 -3.2818864508722523e-01 -5.2790369319932484e-01  -5.6526633149451666e-02 -2.3569899928364801e-01 -5.4419066063473720e-01  5.6615402803774521e-02 -1.8033369043184833e-01 -5.3934850994187167e-01  3.9968227835551880e-02 -2.8973889792879004e-01 -5.1321241361447845e-01  1.3534648405228406e-01 -1.0791407744696579e-01 -5.2783471128038117e-01  1.3284860986937716e-01 3.0752320743375972e-01 -4.5560498287400286e-01  2.8948121914607455e-01 -4.3997163705313452e-02 -2.6707844364559008e-01  2.0319362380590125e-01 2.6946326023810035e-01 -4.2159978770450518e-01  1.7596398395341378e-01 3.5262670258572271e-01 -4.0609882040402473e-01  2.3743591298859648e-01 2.9315213301354331e-01 -3.6398040419678912e-01  4.1192537223896555e-02 4.5246531572574200e-01 -3.2925072499490365e-01  6.5948063685565883e-02 4.9516917685900208e-01 -2.6247489420141085e-01  2.9834615018252908e-01 6.1116932598311732e-02 -2.2788937204199380e-01  2.2687287666002270e-01 2.4090229288100330e-02 -4.4290168793557472e-01  2.9057917742636485e-01 -5.4801053013270290e-02 -2.1733475300684443e-01  1.1331134176954441e-01 -3.7692787905141822e-01 -3.4899463081500542e-01  2.5638442193326905e-01 -2.0682136480145089e-01 -1.8380227976993418e-01  2.4454006312441337e-01 -9.0266411518931028e-02 -4.0677880451495807e-01  4.7840551356180903e-03 -3.5487169147774372e-01 -5.0024029541958559e-01  -1.7556337690489515e-01 2.8796891580763498e-02 -4.4627806020922217e-01  -1.0302775906527309e-01 -5.6177098643642336e-02 -5.3622972541462910e-01  -1.5055711961326396e-01 -1.8021378081171610e-01 -5.4100415094913401e-01  -2.4369760874637755e-02 -3.9399744661623948e-01 -4.7338971739904978e-01  7.8093807610844321e-02 -3.4574195607025671e-01 -4.6306487446437944e-01  2.6907181203921277e-01 2.4641117518577865e-01 -3.2438972169763863e-01  6.5970944494405007e-02 -6.4920423092129059e-02 -5.4499987795841076e-01  -2.0536853726717437e-02 -1.1721847327898011e-01 -5.5218550912718900e-01  2.2479260710427243e-01 1.4704768650499117e-01 -4.2623406213103776e-01  2.4888235228100503e-01 2.0108090638727330e-01 -3.8332540044470131e-01  3.0230854797147183e-01 7.9109234751373658e-02 -1.8911615126823675e-01  1.7512796587926632e-01 2.1803965072475620e-01 -4.5919013880729098e-01  -2.4776202726542081e-02 -6.9488989830402553e-03 -5.4475119928304849e-01  8.4354850283183638e-02 2.1805304685798518e-01 -4.9523019601494678e-01  -1.8731246788620839e-01 -2.5363715043835211e-01 -5.3219704549160307e-01  -8.6900637850974197e-02 -1.4486028497724623e-01 -5.4874531787166037e-01  7.8953577539944711e-02 1.3928448273944879e-01 -4.9751634514931725e-01  -2.8831998344451347e-02 3.8957596746055811e-01 -9.6358095117124676e-02  -1.1447839086969658e-01 3.4862340244316464e-01 -1.0855352956830257e-01  -5.1284092339509056e-02 2.9486257214561534e-01 -1.4544347669582003e-01  -3.4438399157158579e-02 3.2108921905016879e-01 -1.2725494061959491e-01  1.5732175590812622e-02 3.1775000858361740e-01 -1.2651314905027652e-01  -9.2789350663995962e-02 2.8857859039912404e-01 -1.4012509114498853e-01  -2.1462180006665835e-01 7.4963530000752815e-02 -9.7702372577709959e-02  -2.1849021173278685e-01 1.4954664151860275e-01 -9.9044944945550523e-02  -1.0572647948915066e-01 2.3718099405135376e-01 -2.2459741698264044e-01  -6.8539781447578815e-02 2.8623417000601914e-01 -1.7390677264018409e-01  -6.1506297722183093e-02 2.9514632580764977e-01 -2.2837004472925379e-01  1.0518291076337058e-01 9.1813771527089985e-02 -4.5713306821589722e-01  1.3117547194151183e-01 5.9095475781883282e-02 -4.7434230803359018e-01  1.1334932902046087e-01 6.0351207056034889e-02 -4.8031201417109454e-01  4.6981162159993414e-02 -3.0651217561849659e-01 -2.1658518851477346e-01  8.9387320088025177e-02 -2.7191674116458558e-01 -2.5099391128439452e-01  9.1704816566183858e-02 -2.6985869074760604e-01 -1.9298013162700581e-01  1.7489616981508038e-01 9.3386850976300159e-02 -8.582932511