<?xml version="1.0"?>
<VTKFile type="UnstructuredGrid"  version="0.1"  >
<UnstructuredGrid>
<Piece  NumberOfPoints="627" NumberOfCells="1875">
<Points>
<DataArray  type="Float64"  NumberOfComponents="3"  format="ascii">-0.09573258932239023 2.482906815406761 -1.324037443916825e-15  0.1092080110215109 2.982657184853208 -1.296061509792615e-15  -0.7868186872003055 2.433401589098482 -1.315832271830338e-15  -1.393725045922759 2.109521623211728 -1.312926661171989e-15  -1.863876066963444 1.596158941785034 -8.749087999797608e-16  -2.159441861967671 0.9691359139759003 -8.809486854960553e-16  -2.280188110625503 0.2926750616451144 -4.302575768365387e-16  -2.177870950893814 -0.3731840178314793 -4.305762499225408e-16  -1.828343728600343 -0.953418370081513 -4.346638325622096e-16  -1.312060644307438 -1.404860531323376 -4.284775605594395e-16  -0.6888257356453836 -1.701783300513199 8.881791545871522e-18  0.002681029377657705 -1.802168844691202 1.251241719711165e-17  0.6918164312577219 -1.727689833492876 -2.752892634771364e-18  1.318862407341027 -1.441446429098472 -4.257218846163994e-16  1.837606322023445 -0.9971690201916816 -4.481642361503539e-16  2.147038692351289 -0.398115733687735 -4.42917853759923e-16  2.228470351736493 0.2668122215532181 -4.476981214266257e-16  2.085610875144745 0.9170663595485631 -8.856549495555193e-16  1.722443109220217 1.491028971794629 -8.79677241291055e-16  1.199372587877624 1.949006230435663 -8.699063100791431e-16  0.5829089159116978 2.284646888560536 -1.33448444792387e-15  -0.6213044839591828 3.096152140113265 -1.315563473237958e-15  -1.361308328144984 2.982940080397331 -1.342208635220808e-15  -2.026803881615802 2.63718898033884 -1.294002722122237e-15  -2.568428206584466 2.113848007096089 -8.708914250717088e-16  -2.950593627748045 1.467190866803466 -8.878419321778177e-16  -3.167110728957052 0.7491766275680101 -4.243830270047313e-16  -3.212847683536998 0.002951015264937622 -4.37748867566632e-16  -3.035277905211544 -0.7234380048477694 -4.039705535857842e-16  -2.704181632684331 -1.386899702452569 -4.20512121747997e-16  -2.244923929670435 -1.972144136489919 2.691485033797485e-17  -1.665156489705483 -2.443952212084203 2.351376599982083e-17  -0.9795825404529128 -2.742741056476186 5.8198416430846e-18  -0.2381247364836403 -2.848347019346536 -4.710545658840745e-18  0.503583973311152 -2.788651071175346 1.713709821892138e-18  1.213636897196262 -2.571042474544001 1.728185969333395e-17  1.858775841454413 -2.207855316522275 1.207381837392402e-17  2.41018891078973 -1.719244700493521 -4.340607950311258e-16  2.843478198811415 -1.119364960442491 -4.1913690733814e-16  3.134492210449507 -0.4369299528313053 -4.258042290152723e-16  3.234106996567301 0.304568278230295 -4.497491134034978e-16  3.083583625977331 1.03858614999624 -8.878004225775845e-16  2.69807246693096 1.680102423711731 -8.762001500706983e-16  2.145235696727679 2.181746691213831 -1.323713558747722e-15  1.500993103541613 2.540976307024172 -1.322511195600478e-15  0.8113334110260094 2.79175756762764 -1.239778294242796e-15  2.192818591257119 1.3079689659652 -4.107495278099357  2.133568077275447 1.159658721791927 -3.51780897079147  2.500539659134829 0.7698243266860507 -3.909581277857014  -2.481801782349173 -0.2141649385347183 -0.5963193530945083  -2.610833172201857 -0.3890980029718244 -1.083719484869273  -2.688656756997586 -0.071136343345512 -1.676926262026029  -2.562019365134555 -0.6694704341823472 -1.632815428096724  -0.8020392257996386 -2.184215668682193 -2.831102265316046  -0.3417503260685346 -2.343369044876138 -2.296991544909259  -0.9187668708544939 -2.181186788462099 -2.039865261150375  -2.539979308006894 0.8023942806807389 -3.03376785650961  -2.433034678959445 0.431706380051177 -3.527854727990634  -2.605180021910781 0.2525896419168366 -2.93142330365118  -0.0630726359867366 -2.337157285515155 -2.994820225034426  -1.902975354874063 -1.458522602896801 -2.682699239467159  -1.952653462714899 -1.564180767073215 -1.894287558902454  -2.343504490421559 -1.052080218418702 -2.140995792947771  -2.197928015795978 -1.262493619994355 -1.36921086482929  -2.20346121483412 -0.7681344774819706 -0.4264284439969802  -1.818993159361306 -1.305238398409654 -0.5493410814660992  2.357632254385768 0.7327380990425048 -2.924278820719396  -2.254979345134284 -0.8218807488993315 -2.912676608698381  -2.36322978813521 1.012886176266832 -3.688816899146258  -2.593165055654805 -0.3744139034553284 -2.423656508527831  -2.461280179874453 0.8181969423161363 -1.056547391785194  -2.241420417718746 1.26821802669078 -1.554187975787164  -2.579521932631152 0.6707176556664953 -1.612916168381257  -0.5383041969890338 -1.433427670831954 -4.751584857835691  -0.03187163681524881 -1.55705169710372 -4.929392123823784  -0.1679729398786946 -1.860466181300669 -4.353029613120232  -1.300800961840684 -1.787002846060922 -3.261061950586354  -0.6474492219357404 -2.106341069672995 -3.40047018191117  -1.430984637596484 -1.91482193573242 -2.434723366139619  0.3188560409422866 2.405028959686693 -0.8023579224294377  0.9573773009422167 2.130214120377777 -1.219392163518325  0.3505806962047556 2.183344340824352 -1.593101174234827  -0.8779552361041526 -1.725034690365843 -3.957291186057232  -0.1491227144000558 -2.163195638661851 -3.753122662632776  0.4540363800657089 -1.724465266365986 -4.811953514002282  0.9365165174544323 -1.801535822521185 -4.615133935790029  1.17163714449801 -1.979302218086672 -4.041415888733829  0.4557194219167261 -2.062223881119752 -4.169818899936963  0.5342055551118385 -2.267310362444523 -3.418408913806075  -0.1510879253243107 -0.724887821191052 -5.999418203595694  -0.5709498377534913 -0.7829442097028509 -5.552582332194046  -0.4969764452823185 -0.3599067603908047 -6.055959585463569  -0.9049285336777657 2.194054969881905 -3.091097272016634  -0.4146857680296213 2.314881303811254 -3.598856082284307  -1.105494017270577 2.224020986577549 -3.734452645805938  -0.6321606558979951 2.218624830400119 -4.378765997465832  -1.976532424980528 -0.6488119549924636 -3.698451081837122  -2.363869890733593 -0.223636937640242 -3.292665658634217  0.1191368286954111 2.26382540800292 -4.277858086531694  0.2869486228077441 2.165135529774608 -3.38520253195973  -0.2134069442766757 2.145995193021582 -2.731484601558053  -0.9304904451157154 -0.403451249252363 -5.530178124933118  1.226303778546444 1.745298666981968 -2.947568706751295  0.5561226269851581 1.98949140000998 -2.578056319301246  1.092718517179132 1.892168047536718 -2.033371966758214  0.7206660094987928 2.085968992866488 -3.951953611013683  0.7643397073600068 1.9853238429182 -3.325921046998191  1.141093391642223 1.865861409326787 -3.633348616914181  0.9263672754349125 2.21647073891438 -0.6074218934221798  -2.145174354649302 0.01524023671417636 -3.928385835789008  -2.105947766905914 0.6542195217116414 -4.254195082662989  -2.649936655963891 0.1908441615860068 -1.091042029584093  2.042220065065928 1.414986210146167 -0.7010393397115341  0.01601588858217289 -1.990171260075006 -0.6476006067062028  2.633381618300125 -0.3109466277086097 -2.253444054408102  2.679037102213233 -0.2282246275638956 -1.66900574117598  2.538171812270334 -0.7597875587778307 -1.982233188759239  2.616641317574101 0.2713353510617778 -2.225945486532304  -2.397840961342269 -0.8419471610439644 -0.9746242787616241  2.378712152333765 0.9300353523883503 -0.7673913348857062  -0.3872829824816282 0.188171766010235 -6.510652240657677  -0.9189062895086196 0.05500983099259549 -5.884023964184695  -2.444312674572815 0.5413359989345553 -0.5409449231728243  2.208549610664824 -0.7790361088950921 -0.5783074912325988  1.767935280499632 -1.293590427911488 -0.5023352200008823  2.13336036915618 -1.168573531927074 -1.05098985503173  -2.303480965897922 1.298514382286576 -3.234014668445248  -2.306405332337135 1.284554048901814 -2.516431390697778  -0.8294157756558973 -0.9044188824452345 -5.148582661470722  -1.313115228611947 -0.458042772066529 -4.968556393509115  2.342395212532911 -0.935235300114637 -4.387629688084164  2.601318541436044 -0.3634823102185313 -4.452698310858395  2.499453254431594 -0.7457734700761409 -3.657922486156731  2.696042162505373 0.6291663048841736 -5.431294071048913  2.647984789253508 -0.02410641945461967 -5.23656428432852  2.689157562206431 0.1664614457723587 -5.949749091563222  1.181340297189776 -2.111563876416684 -3.192237817764252  1.608628661512786 -1.838468289996042 -3.693227688092739  1.718846112173169 -1.638553175041171 -4.219527420806006  1.476734329961358 -1.557134056770112 -4.766261562271369  1.731101904608687 -1.784021721197504 -3.209047734917888  -1.671899542557637 -1.716532494133482 -1.222697152328605  -1.419994076634127 -1.939288389020556 -1.780982587984856  -1.023693754864533 -2.058411930140333 -1.394102115820243  1.530170548456853 -1.964844265655661 -2.547376941647089  -1.164505498194407 -1.066207624270554 -4.566651425005706  -0.3255101004735331 -2.225448030242928 -1.468834109706081  -0.3591402733857579 2.135130649938869 -1.841475379652936  -0.2379462456483751 2.369840017565733 -1.183178127701102  1.500454571926098 1.907671871481563 -0.7846854527397377  -1.194966626574575 -1.799895637062439 -0.7441867258483144  -0.7848596138507452 2.274672565311221 -1.232560694785692  2.293451762851929 1.179148959811045 -1.295687867180868  2.639572952177087 0.4162068412084143 -1.231215498982753  -0.6508797094004151 -2.01477027510444 -0.8719354842580372  -1.80434655485335 -1.188179735183577 -3.373029339923265  0.08795004910911544 2.06148984033343 -2.273864975127573  2.428246738355176 0.4602053722856915 -0.4885217555680189  -1.357105883877697 0.2353725226569855 -5.391918796988641  -1.768052426932858 0.6818341682994432 -4.86740511917467  -1.329356133698584 1.093073773370327 -5.479789277525379  2.471552852480495 -0.1608791032014116 -0.6485974616755661  -1.764831441145531 1.309231281273729 -4.629285083065915  2.085725282240297 -1.457351699738158 -2.857759119439223  2.303966393776195 -1.202032670177398 -2.280560574046805  2.00258541857827 -1.58420077281416 -2.197492929985608  2.197009379875922 -1.319547276585446 -1.65158
[...]
<PointData  Vectors="f_5775438-0"> 
<DataArray  type="Float64"  Name="f_5775438-0"  NumberOfComponents="3" format="ascii">4.3880078412569301e-02 5.0815498380267976e-01 0.0000000000000000e+00  4.6213248723274624e-03 4.3674316065148266e-01 0.0000000000000000e+00  -7.2184241209421129e-02 4.5561224356262142e-01 0.0000000000000000e+00  -1.7747500186337362e-01 3.7976492317051341e-01 0.0000000000000000e+00  -2.5618139826722280e-01 2.8454746153360683e-01 0.0000000000000000e+00  -3.1748905868793259e-01 1.6727229986356704e-01 0.0000000000000000e+00  -3.5179226815873177e-01 2.8824915428318922e-02 0.0000000000000000e+00  -3.6437269832990699e-01 -1.2389942872562303e-01 0.0000000000000000e+00  -3.4686447904573753e-01 -2.8290044618919491e-01 0.0000000000000000e+00  -2.9142006258386155e-01 -4.1993636239992527e-01 0.0000000000000000e+00  -2.0013362532385373e-01 -5.1683846278849277e-01 0.0000000000000000e+00  -9.0923235273619063e-02 -5.5707744176364571e-01 0.0000000000000000e+00  2.4397238054650782e-02 -5.3630508395018606e-01 0.0000000000000000e+00  1.2660305076948089e-01 -4.5878663499102018e-01 0.0000000000000000e+00  2.0117115851081707e-01 -3.3729113219252654e-01 0.0000000000000000e+00  2.4837160511722714e-01 -1.9255049338414093e-01 0.0000000000000000e+00  2.7362333909796011e-01 -3.6210357286370037e-02 0.0000000000000000e+00  2.8543498258500949e-01 1.3202589779102999e-01 0.0000000000000000e+00  2.7437096088609186e-01 2.9439353193643364e-01 0.0000000000000000e+00  2.3143562213712643e-01 4.2862682440966454e-01 0.0000000000000000e+00  1.5175504366454998e-01 5.0727533220803500e-01 0.0000000000000000e+00  -8.9046584334093917e-02 3.6904168251959862e-01 0.0000000000000000e+00  -1.4119416226645498e-01 2.8941641758058079e-01 0.0000000000000000e+00  -1.7466014478143668e-01 2.1693456265921188e-01 0.0000000000000000e+00  -1.9162675586118313e-01 1.4921001514314949e-01 0.0000000000000000e+00  -2.0901057582046614e-01 8.5985852665125470e-02 0.0000000000000000e+00  -2.2004435001215025e-01 2.1823606764968029e-02 0.0000000000000000e+00  -2.3003341263457028e-01 -4.1030621470555716e-02 0.0000000000000000e+00  -2.4409625411832533e-01 -1.0999032138980085e-01 0.0000000000000000e+00  -2.4623916184452802e-01 -1.9203759062170345e-01 0.0000000000000000e+00  -2.2897790361046624e-01 -2.6859260552901409e-01 0.0000000000000000e+00  -1.9231997676234072e-01 -3.3320285214900874e-01 0.0000000000000000e+00  -1.3664393999961644e-01 -3.8623494962563554e-01 0.0000000000000000e+00  -6.8865243031967227e-02 -4.1404327643717043e-01 0.0000000000000000e+00  5.5149985637994083e-03 -4.1159654934274970e-01 0.0000000000000000e+00  7.3259286025244896e-02 -3.7488248940167551e-01 0.0000000000000000e+00  1.2415635566299867e-01 -3.1049783749221654e-01 0.0000000000000000e+00  1.5254044846827358e-01 -2.2513509668730047e-01 0.0000000000000000e+00  1.5872178482483565e-01 -1.4077156371131849e-01 0.0000000000000000e+00  1.5032112716565538e-01 -6.3285946706708757e-02 0.0000000000000000e+00  1.4645567051065544e-01 -5.9566842655542707e-03 0.0000000000000000e+00  1.6339998969109956e-01 5.0741452229816207e-02 0.0000000000000000e+00  1.9144497522724041e-01 1.3322374147937735e-01 0.0000000000000000e+00  2.0493327642246426e-01 2.4189005165512992e-01 0.0000000000000000e+00  1.7737918463433572e-01 3.5631753009314199e-01 0.0000000000000000e+00  1.0880778526458351e-01 4.3362671937759506e-01 0.0000000000000000e+00  2.7045072211399029e-01 2.7135215063833840e-01 -1.4343304284009559e-01  2.7655452449763723e-01 2.7314211062158100e-01 -1.2330728988418800e-01  2.8859847702024610e-01 1.6078802874302484e-01 -1.3625767529240226e-01  -3.4445843828001765e-01 -8.4520503718101006e-02 1.2842828519113499e-04  -3.2513432872543535e-01 -1.0653189868838671e-01 -3.8585186625571068e-02  -3.1328945965151572e-01 -5.6336132043891561e-02 -8.5971692428117322e-02  -3.1942030340901395e-01 -1.6048847010242814e-01 -8.7503989112135944e-02  -1.6788652239218113e-01 -4.1845926266687145e-01 -1.9463879732841924e-01  -1.0699702508104211e-01 -4.5408039474770390e-01 -1.3603067755188261e-01  -1.7792035916103466e-01 -4.4089315593271511e-01 -1.1866255923440880e-01  -2.6886894047225557e-01 3.9366520269414507e-02 -1.6989275187380914e-01  -2.9285770525708915e-01 -4.8627207008388386e-02 -2.2700262458715303e-01  -3.0027725548996065e-01 -4.6994390857043981e-02 -1.8141885088902784e-01  -7.1432347197506185e-02 -4.2774088842181884e-01 -1.9570921626145971e-01  -2.9093148425504428e-01 -3.1385831734840247e-01 -1.9586811015537281e-01  -2.8494394071427742e-01 -3.2341982583915507e-01 -1.1504147072405502e-01  -3.1214450200034410e-01 -2.3338642351798095e-01 -1.3889128864045464e-01  -3.0795225261542958e-01 -2.7474856812614479e-01 -6.2825910541432495e-02  -3.4926503529256092e-01 -2.1338507694128553e-01 9.0009354599849128e-03  -3.1581100135551510e-01 -3.4384834280896004e-01 4.2682308761385224e-03  2.8359260863679681e-01 1.8028727939830355e-01 -1.1386437436057434e-01  -3.2378430962365040e-01 -2.2476306754708891e-01 -2.1646177432322056e-01  -2.4754589639627855e-01 4.3855645911368042e-02 -2.1016688322046914e-01  -3.1834487808497824e-01 -1.3125060664984925e-01 -1.5631031260945805e-01  -3.0285165070463183e-01 1.0905543746477685e-01 -3.5397695227458462e-02  -2.5838775885443532e-01 1.9679504539681544e-01 -6.7081863965381433e-02  -2.9241395410091253e-01 7.6520479632810501e-02 -7.2440738071604241e-02  -1.7101869498127198e-01 -3.4634785950766500e-01 -3.6145896846770498e-01  -9.4401601032194624e-02 -3.4854158997732632e-01 -3.5604436719054339e-01  -1.0575077137496601e-01 -3.7490055267131855e-01 -3.1798463849363401e-01  -2.4043880529182013e-01 -3.6938277969041056e-01 -2.4735169190258788e-01  -1.5563017791290060e-01 -4.0475557121075650e-01 -2.4687253505946433e-01  -2.3885294100071428e-01 -3.8343547002981027e-01 -1.6570482285692664e-01  8.4484934312710674e-02 5.0436938500547501e-01 -4.3241466513849275e-02  1.6196333512373226e-01 4.7270166203605701e-01 -6.5954181027989098e-02  8.2173797604533833e-02 5.0772038287317312e-01 -8.7868873435464429e-02  -2.0425593276013712e-01 -3.7209950098198125e-01 -3.0598741065329416e-01  -8.9453346603435804e-02 -3.9610329879703465e-01 -2.6428974979317577e-01  -1.8653725532752689e-02 -3.4588308522986050e-01 -3.2849150911324637e-01  5.3538959531740538e-02 -3.2779885077922033e-01 -2.9356988852176136e-01  8.8667457293103810e-02 -3.3164172381126605e-01 -2.4364082720580629e-01  -8.3851593885898509e-03 -3.6873521403345572e-01 -2.7993943715282837e-01  9.0057302756400958e-03 -3.9705450835060713e-01 -2.1744909870099632e-01  -1.2381442384480799e-01 -2.4738713047762417e-01 -4.0674042965098989e-01  -1.8189307703697499e-01 -2.6857402208870984e-01 -4.0304594510600478e-01  -1.6503937744298605e-01 -1.9525116859619840e-01 -4.1234744598120576e-01  -7.4987956266683212e-02 3.9793909926484627e-01 -1.2796892051161488e-01  -1.3608149236390346e-02 4.1921798416446926e-01 -1.5617045515055505e-01  -1.0055798874071772e-01 3.2378180236238319e-01 -1.7563593766108587e-01  -6.0168815785965120e-02 3.3421693827411453e-01 -2.1067455443255120e-01  -3.2580479616542801e-01 -2.2963135020893363e-01 -2.9051192092088024e-01  -3.2412016010325539e-01 -1.4761475279754210e-01 -2.3841574407672730e-01  4.0781098900537251e-02 4.1718646185561525e-01 -1.8809642872443003e-01  8.5640157942252784e-02 4.7790764994858559e-01 -1.3420335166402156e-01  1.7350006304176123e-02 4.8261394586177553e-01 -1.0944040887512252e-01  -2.2291836620467506e-01 -2.1390962811513872e-01 -3.9933390755328801e-01  2.0182471809645150e-01 4.4489428984045426e-01 -1.1770675149151605e-01  1.1962068679770615e-01 4.9944820155250524e-01 -1.0991889992636968e-01  1.7831898413506647e-01 4.6425357689183566e-01 -1.0024683160091707e-01  1.3118058802417734e-01 4.5609118520156883e-01 -1.5547030679427234e-01  1.4901298900609938e-01 4.7690857844819767e-01 -1.2744050786220706e-01  1.8833634507102673e-01 4.4652571068591901e-01 -1.3482956206646982e-01  1.7232278017910371e-01 4.7427331511724513e-01 -2.4069735186190915e-02  -3.1442533673162831e-01 -1.3328480162211659e-01 -2.8609484041030642e-01  -2.7267101916194120e-01 -3.4603873203836386e-02 -2.7727273673526920e-01  -3.1744410406456880e-01 -4.9705026113929613e-03 -3.9816750561804989e-02  2.6381563653478218e-01 2.5645542304946545e-01 -1.3773774088576142e-02  -6.2243787586990409e-02 -5.4594869694891290e-01 -2.9309419187261213e-04  2.6811295000018098e-01 -5.4717389953992071e-02 -9.2022213169483030e-02  2.5870551323806218e-01 -6.0478394165155311e-02 -5.8522913055035243e-02  2.5197584464235190e-01 -1.4764147625534010e-01 -7.7229340261276619e-02  2.7616964525875487e-01 5.6770233119660618e-02 -9.1706769028961313e-02  -3.2787959596242416e-01 -2.0152421709889798e-01 -2.9807278649878439e-02  2.6898558393856770e-01 1.3612524440100573e-01 -1.1787578277273184e-02  -1.3532232393572596e-01 -9.3161010225937174e-02 -4.0296587708566894e-01  -2.0373168039938583e-01 -1.3595927344563330e-01 -3.9662650666767058e-01  -3.3098296775759528e-01 6.0262451793699170e-02 -3.1531991451176325e-03  2.4131155361197348e-01 -2.3226054863008302e-01 6.7596541893764550e-03  1.9612525252212459e-01 -3.6363400761301040e-01 7.2944308600041592e-03  2.1981553485711547e-01 -2.8227296510614308e-01 -1.4543458895808064e-02  -2.3337114169867787e-01 1.2243521889601268e-01 -1.6699699226732309e-01  -2.4378111223798493e-01 1.6281186916499635e-01 -1.1993233871549831e-01  -2.1575392919650688e-01 -2.8670304042818229e-01 -3.8896828645838244e-01  -2.7015548042092963e-01 -2.2456535277779338e-01 -3.7521148080460248e-01  2.3561814295423827e-01 -1.4573680968668082e-01 -1.9894284363458245e-01  2.6838771326918598e-01 -5.1469698906719485e-02 -1.7849994714648440e-01  2.6134272528971114e-01 -1.0784836220791857e-01 -1.5372324245916455e-01  2.6535978491232137e-01 9.5060291815265055e-02 -1.9830418405058670e-01  2.6408188146951944e-01 -1.2187473414503226e-02 -1.9923808414942892e-01  2.4225467158782654e-01 1.7701999173190684e-02 -2.2413758160912026e-01  9.6972969030185027e-02 -3.6791662070604148e-01 -1.8226047878417681e-01  1.4807128881438061e-01 -3.0134127232295982e-01 -2.0168177206303453e-01  1.5945605936358673e-01 -2.6559207871452883e-01 -2.3017752216347717e-01  1.2487571226826323e-01 -2.7553083034948839e-01 -2.7403703032644844e-01  1.6956230329184888e-01 -3.0470202920616418e-01 -1.6565016967214632e-01  -2.7007463149989291e-01 -3.8126733016697339e-01 -4.7171461302903228e-02  -2.3621291320964777e-01 -4.0363260189220307e-01 -9.9476409798865378e-02  -1.9431346958791576e-01 -4.5913332070798268e-01 -5.8196269885171882e-02  1.4197514944058370e-01 -3.5797059983806212e-01 -1.2912361431213162e-01  -2.5564621826726946e-01 -3.0542078373403037e-01 -3.5836656075418127e-01  -1.0555267670735602e-01 -4.9759777729286186e-01 -5.6001725405672748e-02  -1.5710491565785040e-02 4.8896029571290034e-01 -9.3307301323152389e-02  -3.8843903921834148e-03 4.9106534221801762e-01 -7.0742463029790023e-02  2.2640477428703679e-01 3.9085070774391967e-01 -2.8859830681933624e-02  -2.3517931152092231e-01 -4.5973429484916450e-01 -9.1584683139346781e-03  -8.5244852577551378e-02 4.4779617884869927e-01 -7.0985922225865486e-02  2.6367775126227005e-01 2.0820425699224637e-01 -4.8888883183424749e-02  2.6295684611335784e-01 4.1134458411250317e-02 -3.5361779996704083e-02  -1.5763931934656272e-01 -5.1118831881999072e-01 -1.3526176002695230e-02  -3.0608618054646314e-01 -2.9737926978662399e-01 -2.6687252621958441e-01  5.4398770553295117e-02 5.0940754363446561e-01 -1.0250122735479121e-01  2.7341352083817094e-01 2.9211956049379574e-02 4.6738389445509267e-03  -2.4306304080735369e-01 -1.1279830307135670e-01 -3.6698223191858970e-01  -2.5142867462276280e-01 -3.5997065542841628e-02 -3.1293009398484395e-01  -1.9440879510429460e-01 3.1282632375904625e-02 -3.1590775643665236e-01  2.6039576548829446e-01 -9.4979754246437356e-02 3.0296246597604371e-03  -2.1241389991753828e-01 7.7353302903026167e-02 -2.6477469947532395e-01  2.1468271851001638e-01 -2.5257578696040101e-01 -1.3438293327809847e-01  2.3379251509862456e-01 -2.1980049518108238e-01 -9.7669632752007879e-02  1.9900471551807095e-01 -2.9662109048052271e-01 -9.7276249399994158e-02  2.1555554634748555e-01 -2.6973694676221904e-01 -5.4802239829952810e-02  1.3978209183500270e-01 3.5274009376796950e-01 -2.3416280738462791e-01  2.3205871204315645e-01 3.2290313651863001e-01 -1.7913892805381776e-01  2.0325073275233937e-01 2.7967169785435969e-01 -2.2760444751917625e-01  1.8414986270719738e-01 4.1421025820437701e-01 -1.6576396566391949e-01  -1.2049184259969993e-01 4.2146135035997506e-01 -2.9472777974658658e-02  -3.4916404246202556e-02 4.7375603819798262e-01 -3.7892611713427463e-02  2.4052409473424974e-01 3.7437440119372406e-01 -1.3310102674686419e-01  2.7368350990322338e-01 1.9538632936489145e-01 -1.7112503495490719e-01  2.4932741444913870e-01 3.3091424181919232e-01 -9.3512109137164665e-02  2.1513290758842640e-01 4.0733221014738413e-01 -7.4392554984486450e-02  -1.3809028004760684e-01 3.1156315138185792e-01 -1.4265406700561231e-01  -1.2689832395146056e-01 3.7125271362744172e-01 -1.0656001826467935e-01  -1.9133397574021857e-01 2.4389455908372482e-01 -1.3345864877456623e-01  -2.8803794041477565e-01 1.8874360292093625e-01 -1.8956504990968109e-02  1.7329656906577359e-01 -3.7825612467170433e-01 -1.6615561000966700e-02  1.2703177472437072e-01 -4.5399331085148809e-01 3.7711000591193421e-03  2.8311348198338809e-01 5.8662722208988792e-02 -1.6728768223977530e-01  -1.0330586244663517e-01 2.4091797015100802e-01 -2.5446713095490664e-01  -1.4100886029138501e-01 2.2155485082249007e-01 -2.2774104204339274e-01  2.4651925994670085e-01 3.2546854062655878e-01 -5.5362001943511110e-02  2.7317440865306691e-01 1.7743419984475339e-01 -8.8293418858078912e-02  2.7431477155549772e-01 2.6037554590664452e-01 -1.0566856826624876e-01  2.5801932825229146e-01 3.3738457213403783e-01 -1.1491306476973334e-01  -1.6486978522773127e-01 3.7742140046473133e-01 -5.4770943463376361e-02  2.2534005827078366e-01 4.1099659846661979e-01 -1.0934154697254482e-01  -1.2438430835782734e-01 -3.0935690436598695e-01 -3.8930263293292772e-01  -3.8844392122294465e-02 -2.5250129542709715e-01 -3.8368162983470061e-01  -2.3701860709966799e-02 -3.1303595322684641e-01 -3.6022607509151616e-01  5.8129899521347096e-02 -2.5116363428966187e-01 -3.3822952565609199e-01  -3.1753213441592501e-02 -4.6313026723648959e-01 -1.1166845580689931e-01  2.8398721118650536e-02 -4.2069451097928207e-01 -1.5811187145065228e-01  7.1737629008190390e-02 -4.3132536060279214e-01 -9.2325877777658646e-02  2.8245385390192790e-01 2.3786940377679807e-02 -1.1639332581802250e-01  -1.0521526828655482e-01 1.0373977779248007e-01 -3.4095175198043726e-01  -5.4528813919923744e-02 8.8187363858905785e-02 -3.5111335544270056e-01  -1.0867085872481119e-01 7.6871605105767373e-03 -3.7566288058242847e-01  -6.5801633637612156e-02 -3.6597609392198006e-02 -3.8742308032672040e-01  2.4601932501125465e-01 -1.8448783331896890e-01 -1.4263996582263069e-01  2.6366463850444793e-01 -1.2327174920008310e-01 -1.1742961474472921e-01  2.1260891835612192e-01 -2.1714239089397794e-01 -1.8292066370168716e-01  -1.1423246720268977e-01 4.1686121483714123e-01 -8.5162239512849458e-02  1.5297341261841343e-01 -3.7084104128309980e-01 -6.5609542631472562e-02  9.5180913869633524e-02 -4.5356542435409797e-01 -3.0857708190446954e-02  -1.6632583231575476e-01 1.3945096409578844e-01 -2.7020128943077631e-01  -1.2266872116405919e-01 1.5112234881105246e-01 -2.9888271944438155e-01  4.7357908489781018e-02 -5.0656794342028555e-01 -5.6157031113744120e-03  2.5683630785384010e-01 -7.2932594994005728e-02 -2.5776472397083517e-02  2.4598436578340371e-01 -1.7220786172745522e-01 -2.8797075646513549e-02  -9.1477799932952689e-03 -5.0266941194539383e-01 -4.0863745207174826e-02  -5.4268172322536272e-02 4.5473177591293373e-01 -9.9189188316153531e-02  1.3107792668409715e-01 2.7435736332935334e-01 -2.7398523023645949e-01  1.9435076832539139e-01 2.1762206776766871e-01 -2.5086899825222203e-01  1.2032489540080854e-01 1.8834852505048610e-01 -2.9246269083838800e-01  9.8170871520406516e-02 4.0532329478655515e-01 -2.0674289102134480e-01  -2.7898498738423649e-01 5.7124785126951093e-02 -1.2751142092359621e-01  -2.9877337150192279e-01 -2.5422945755152415e-02 -1.2604836578579284e-01  -2.8649495180170786e-01 -3.1223302931867886e-01 -3.1374345402118076e-01  -3.1049929660707709e-01 -2.1732045896656194e-01 -3.3526151426914280e-01  -2.9058315362397641e-01 -1.3131840011253418e-01 -3.3272091479445481e-01  -1.8656416799982856e-02 3.3873600449720187e-01 -2.3246909293132775e-01  6.0743829126747571e-04 3.1394742323091984e-01 -2.6290335156734052e-01  -6.1398988571862247e-02 2.5775528717479540e-01 -2.7240980683102572e-01  4.0191360855837271e-02 3.1251308335609718e-01 -2.7663316175890662e-01  2.9279082351132268e-01 1.0412733177653399e-01 -1.2142981658539347e-01  2.8438491132822791e-01 1.6089597253292235e-02 -1.3876292262005674e-01  -1.5605310249695334e-01 2.3805084336510038e-01 -1.8093602882949530e-01  2.3023640682810687e-01 -1.1943183600026681e-01 -2.2323938098872884e-01  -4.4387591481846560e-02 2.3127656181467837e-01 -3.0345165550187286e-01  1.9199710427706773e-01 -2.1054184002443066e-01 -2.3716225977678040e-01  -1.9715631756619051e-01 3.2003526179375791e-01 -7.5400732515584573e-02  -2.0075857261558033e-01 1.4304170928341289e-01 -2.0590391246558801e-01  -1.4981856199504043e-01 6.0959817338373648e-02 -3.3263888079425530e-01  -1.6719220076060112e-01 -2.7205293992149961e-02 -3.7007986108433782e-01  6.3470919746474203e-02 -2.9551552834805006e-01 -3.1893299449791113e-01  1.5630825795775813e-01 -2.0503173075001579e-01 -2.7897275828515838e-01  -2.3547364977984056e-01 2.8605942474088458e-01 -3.4272005836720160e-02  -7.3045763419327378e-02 -1.5600974585355823e-01 -4.0268223437497602e-01  2.1711217947580042e-01 -8.5512680379308689e-02 -2.4102663166201260e-01  9.1902457575550017e-02 -1.0428049186696746e-01 -3.3859852536433799e-01  1.1319427112663855e-01 -1.8356409612158853e-01 -3.1767255296494046e-01  4.9669975467878755e-02 -1.9899105418780627e-01 -3.5374215985498675e-01  -2.3678901895629975e-01 4.9121265477895693e-02 -2.4400276575934715e-01  -2.1334206858188617e-01 2.6344993432222558e-01 -9.3138015658249376e-02  3.9611532379506348e-02 2.1438568559221322e-01 -3.1330683555561745e-01  7.2708983528291124e-02 2.9308757369141819e-01 -2.8760698578834393e-01  -1.7700381252243561e-02 2.1403315035552842e-01 -3.2072706072276391e-01  2.2561263767905640e-02 1.2727408465043766e-01 -3.2142452246364756e-01  6.3456962999143010e-02 9.2947328408806873e-02 -3.0731633203209618e-01  2.4543839573145826e-01 1.8574833867324372e-01 -2.1278087214164937e-01  2.4440426478800034e-01 2.4846434038075227e-01 -1.9728832530463472e-01  -2.6708791873078541e-01 1.4420880869206698e-01 -9.2031183586245208e-02  -1.7117127087622069e-01 3.3466163526147219e-01 -9.4703075767614386e-02  2.8125673631634318e-01 -4.1714190995299626e-02 -1.2866569245901410e-01  -1.2256561575548039e-02 2.7500133763087839e-02 -3.5589356812697026e-01  6.7704340628224169e-02 -1.0132108267831548e-02 -3.2976207520723427e-01  1.4444585563035794e-02 -7.6311374922192643e-02 -3.7015587692968210e-01  2.0802102472709158e-01 1.1216613192173865e-01 -2.4747109825398519e-01  1.2817097082893336e-01 1.4778997582410322e-02 -2.8845741423310889e-01  1.3524616734496081e-01 9.3337195221956465e-02 -2.7724009400303806e-01  1.9650130577808550e-01 5.1649848382498559e-03 -2.5909303492629299e-01  1.6572951115188750e-01 -1.1161607956223270e-01 -2.8508451124842182e-01  1.5030538235510085e-01 -4.2445099864424830e-02 -2.9221470606339950e-01  8.2055845617026463e-03 -1.6393088167368852e-01 -3.7666348090838331e-01  -2.5390308543124060e-02 -3.8690013359422132e-01 -6.8911252246499313e-02  -1.0268136262572117e-01 -3.8180753143500240e-01 -6.4970046246073748e-02  1.5707342241515926e-01 2.7848024629662921e-01 -1.0563883550309462e-01  1.8722744915246770e-01 2.0542775099471913e-01 -9.1720636018475216e-02  1.8102785720637352e-01 2.2993248427468230e-01 -1.1207252973499059e-01  1.4033229844137099e-01 -8.1490959709603572e-02 -3.6158070419868148e-02  1.3668775777486594e-01 -1.1396114945895393e-01 -5.83731