<?xml version="1.0"?>
<VTKFile type="UnstructuredGrid"  version="0.1"  >
<UnstructuredGrid>
<Piece  NumberOfPoints="559" NumberOfCells="1661">
<Points>
<DataArray  type="Float64"  NumberOfComponents="3"  format="ascii">0.7114499678008701 2.077942494370647 -1.775800228995575e-15  1.988321829738285 -2.263574271629181 1.374288943765303e-17  0.05456218999352764 2.119540261080533 -1.765031354976031e-15  -0.554768076334833 1.861994082373953 -1.776816553743465e-15  -1.007994776876471 1.365609282557704 -1.340146301737767e-15  -1.286453410604696 0.7599777111495499 -1.326622451585952e-15  -1.41392577993194 0.1064318409689068 -8.755889435027296e-16  -1.419517936633262 -0.534773818461415 -8.666331809590762e-16  -1.171592064781047 -1.107790785539571 -4.122325152621639e-16  -0.7206110265639152 -1.546175148535125 -4.822226231005126e-16  -0.1269349835476263 -1.771621334344667 -4.354014369363115e-16  0.515301007335334 -1.817552372898123 3.780449573849041e-17  1.143181668343465 -1.650073950248437 -4.11163504367616e-16  1.649053679645586 -1.239790853978453 -4.038825281759726e-16  1.964906593120593 -0.6621287545725463 -4.384416554240541e-16  2.055799329444226 -0.001765583658716541 -8.735959002809855e-16  1.981941902396897 0.6634367950178993 -1.313086297834411e-15  1.724580450958128 1.269616508130468 -1.313096023847104e-15  1.295508607075025 1.768280652526392 -1.769101503455689e-15  2.485301757956311 -1.72163697139463 -4.291542174725666e-16  2.832450218292563 -1.076089716217145 -3.920298635152282e-16  3.033822801262105 -0.3749174356480865 -8.584628131516812e-16  3.065613955482303 0.3593328152721835 -8.771222530829772e-16  2.882633538611451 1.078133631265706 -1.226969996593945e-15  2.476115404877239 1.695610374994987 -1.338587519905687e-15  1.938060498484268 2.187267881655447 -1.760513558194201e-15  1.324521182880521 2.559120343505221 -1.743980304686227e-15  0.6635909744563308 2.842119257813775 -1.759394356727501e-15  -0.05065680381160962 2.99323125616564 -1.752117465028064e-15  -0.784205933641777 2.924594469046648 -1.751149699240675e-15  -1.46378365745972 2.625898093410289 -1.719113767917817e-15  -2.034876788980015 2.140208604542872 -1.724371651129194e-15  -2.450622992654969 1.521387894837868 -1.363502811052572e-15  -2.692654176220523 0.8206750668176609 -1.283420393884309e-15  -2.75152741283626 0.08133753243907713 -8.939187617192848e-16  -2.647020909514095 -0.6474333169104741 -8.235335731521181e-16  -2.380188566322837 -1.331736110019958 -4.2592515617453e-16  -1.971389626807148 -1.934582578633385 -4.176336440169334e-16  -1.431206724033402 -2.425320726213172 3.42902913742584e-17  -0.7804203745020535 -2.762836478191605 3.492811183956252e-17  -0.06732966040198766 -2.910074776855878 6.688411849695796e-17  0.6666788068677048 -2.873429290711836 6.249111200584482e-17  1.36388065259474 -2.649624100949285 1.021400397949045e-16  2.089271338751823 0.1568940874072335 -1.102862736792276  2.084675011896954 0.5094103091716277 -0.690954585682678  2.092514230162306 -0.2027064362855366 -0.6451485011954561  1.617524833068563 1.543979176780439 -0.5549437053989058  1.37013830452605 1.632788296360959 -1.107606724023611  1.143872730961342 1.899085634024346 -0.5979732594804796  1.86802852509027 1.144109320047301 -1.011295462936982  1.917329089669074 0.678840262760584 -1.553993211037377  0.6674372065464302 1.881277212860541 -1.24302331624299  1.863203003140448 -0.9365361605484719 -0.638571427482855  1.479039946074189 -1.437015051499583 -0.5759759817894554  1.473393284014594 -1.380898225524662 -1.160101350979255  1.330001322724562 -0.8485115457785667 -2.341111872854846  0.9546453110776187 -1.09210306423308 -3.056573903367962  1.160504140613972 -0.5022321131153147 -2.741138652086399  -0.1721230061509287 1.553354836792233 -3.949968710276177  -0.06331586776023683 1.496224347622305 -4.566905630149901  -0.510609619087302 1.501823514298543 -4.369253087617558  1.163152619971819 1.516041509566941 -1.690964465781168  1.638575504436925 1.189867237943629 -1.534936149125382  0.7903556252853268 1.332792570416087 -2.483967771568781  0.5253902901015417 1.591345942892509 -1.97138397577393  0.1598037109554272 1.507169797973317 -2.599756505760451  -1.730534427093653 -0.8798239150535268 -1.945753486648363  -1.632675966047266 -1.059515824485017 -1.399710624471224  -1.800802763525945 -0.5280533204095608 -1.328203619883217  -0.4788170297126664 1.445363332291581 -5.059194682531803  0.9227860972010172 -0.6464374650080548 -3.43277602592778  0.8339557812527892 -1.069280990828765 -3.97266923312892  0.9288711412992419 -1.785721764904688 -0.8443445041361026  -1.598670299203183 0.8197799760953367 -4.210518494687186  -1.858487713672199 0.3643205684079683 -3.931252704161856  -1.755680500367531 0.9194585815361581 -3.412773740485139  -1.536795989034046 -1.000674829431174 -0.6751502224377457  -1.373579060547715 -1.39957394442035 -1.243749635605067  -0.1635919553471425 2.041750872407742 -0.4701338779436771  -0.07146595452536905 1.902009030622412 -1.011357157987492  -0.6468795892600465 1.736749612555559 -0.5960181363516472  -1.639434672498301 0.0383170486978957 -4.642526320023841  0.5044488942815193 2.089513505396679 -0.6310246608451875  1.997555092647908 -0.4284948268406361 -1.154962646406823  -1.839721044711615 0.4894774746174392 -2.139049028707642  -1.51615051613469 0.9378720146144501 -2.086495970180895  -1.848434155368194 0.6865365912570158 -2.710840222148896  1.095428918666181 -1.691845000736875 -1.645907136791372  -1.831999503793593 0.0923821770371752 -1.596736623330642  -1.921992669876073 -0.39612909480023 -2.164727329334393  -1.536894145578638 1.133058266595204 -2.890468763426809  -1.399182517300733 -1.415919823113061 -2.614647112461413  -0.9795544834952149 -1.767709537688217 -2.922416695469036  -0.9497907597524797 -1.738449249910932 -2.301934750752475  -0.5815259477223915 1.561542132198146 -1.374831859931158  -1.714443839744074 -0.05005386935323902 -0.8818200550954072  -1.592023291505575 0.4481936405349897 -0.9545961962757457  -1.637462090424543 0.5828472926914836 -1.539440961449102  1.729714031917156 -0.5788220903394827 -1.785136298977038  1.775629418442789 -0.8915284650584994 -1.364242553454636  1.50783612894231 -1.165209555425005 -1.82587831543573  -0.009936931496316777 1.649023455242958 -1.737758220509348  -1.414481658023436 -1.338080185242455 -1.969485038552562  -0.5862189545744828 1.4892462976409 -2.315692982787981  1.106260125540418 -1.403655422483523 -2.416138582245435  0.6036153599827375 -1.922139749583135 -2.294777126462114  -1.362306053204885 0.9214544242377962 -1.252317516883006  -1.288832307806376 -1.169849922818461 -4.080400014285368  -0.7086385696827893 -1.497330574724808 -4.417192752208459  -0.8915527856324774 -1.72031241383711 -3.602636487319685  0.2678361557935118 -1.962715085691566 -0.7293522348605603  -0.5262483005619415 -1.876350189875645 -0.7140803507813345  -0.2161728050104128 -1.982898605239761 -1.351132520276858  1.915161679596194 1.034232577288042 -0.4292079005981687  -1.767284596208909 -0.8877291054399212 -2.670130736654275  1.910687219105105 0.003586421573668369 -1.643778066698887  1.694130672230797 0.367800984628697 -2.095230241122021  1.534005964591271 -0.2263444822659718 -2.23784713435446  1.293820670495647 0.06731336003943544 -2.851332898990004  1.221151681513104 0.2463994566114555 -3.866756219585257  1.275773410136974 0.553984760735703 -2.904230952166171  1.410720157209113 0.9668113729248057 -2.18580637652791  -1.061553412943315 1.30836449375896 -0.7635532120135189  -1.357393839926623 0.8393438819465087 -0.5066663908239799  -1.101520405440928 -1.526332311810319 -0.6482348350871654  -1.643280635873263 -0.4114659238222642 -0.571084412938935  -0.4823120548968637 -1.913160134863136 -2.094234123927354  -0.3868981152889853 -1.977843828008867 -2.899604758731922  -0.9442525515743856 -1.745119510958442 -1.497642455127154  -1.401708740275795 -1.394232688843213 -3.291614768227712  1.080326350854293 0.7868748696096333 -3.635700883365011  1.020853117548367 -0.2222219861312263 -3.393846982545058  1.019452928212929 -0.3918003737638082 -4.097469606276179  1.019909921419874 -0.7596552966878156 -4.751776156498403  1.260463922841739 -0.1187560913570635 -4.654409560393828  0.2800737530640672 -1.929697244425388 -3.194118889242718  0.1567723395476895 -2.001641684925204 -2.703918027472791  -0.2643549791683227 1.580036288878839 -3.164011262609947  0.2601279394427631 1.45747111227275 -3.494281548991486  -1.975308637665292 -0.3134195574971495 -3.008078468022354  -1.992586358422591 0.1210597259781864 -2.484753356551048  -1.054829723829961 1.244545662346956 -1.672207831612166  0.02786224163496746 -1.994988357145432 -2.08502324538239  0.4197389349204426 -1.975398916504994 -1.391377673658768  -2.001366787738538 0.2587887673166807 -3.273339616469042  0.9879561252092843 1.005556615033371 -2.986549673494485  -1.171863434352618 1.264404918290923 -2.334635643543761  -1.871385600242421 -0.202303128454877 -3.789296781123346  -0.8038470987716602 1.529479559542801 -3.672701580734049  -1.699008017878095 -0.8453709340303737 -3.573946889491475  0.7772240212285542 1.156921609002193 -3.817446219226662  0.5941628257834001 1.299935413545974 -3.109185539817247  -0.9797412050680377 1.486837773823392 -3.011114774372984  0.6623240230731311 -1.519236500730885 -3.511116147765804  0.7486496589954796 -1.626742307784439 -2.940816276464684  -1.373212244591002 1.26255770801311 -3.693004948728387  -1.041975124814606 1.27843134761491 -4.411499075720296  -1.403426807593942 0.782249150626338 -4.966408981443707  0.675023874516492 -1.157953000139067 -5.39775737686734  0.5909109167105062 -1.328260745075611 -4.749614995193816  0.3570137419559989 -1.652960354566824 -4.007685127547846  1.128263713350098 0.8124021138907435 -4.372689313701886  -0.1183310054483813 -0.2900948581760516 -8.026062633017961  -0.1329888409371361 0.3077113181715682 -7.941416699563786  0.4043790910184034 0.1659721820983709 -8.375366688602867  -1.41668877041443 0.3091181139029043 -5.431173072801303  -1.298746940905806 -0.2635757139689013 -5.4895
[...]
<PointData  Vectors="f_2364867-0"> 
<DataArray  type="Float64"  Name="f_2364867-0"  NumberOfComponents="3" format="ascii">2.8909258058554688e-01 4.5279932545177087e-01 0.0000000000000000e+00  1.7856561478612223e-01 -3.2697820780637349e-01 0.0000000000000000e+00  1.0499297660610903e-01 5.1489971392975165e-01 0.0000000000000000e+00  -1.0070959898456414e-01 5.2977670699504598e-01 0.0000000000000000e+00  -3.0932005361048159e-01 4.8983967875559248e-01 0.0000000000000000e+00  -4.7671393424148750e-01 3.6458155394321673e-01 0.0000000000000000e+00  -5.7555255491101520e-01 1.9224489501700504e-01 0.0000000000000000e+00  -5.7204314666505263e-01 -1.5285555407021699e-02 0.0000000000000000e+00  -5.0519246056551537e-01 -2.2679247059126723e-01 0.0000000000000000e+00  -3.7681289111481525e-01 -4.0986675542560375e-01 0.0000000000000000e+00  -1.9578482982796724e-01 -5.4272412306899087e-01 0.0000000000000000e+00  7.8514372722736873e-03 -5.8990519481089887e-01 0.0000000000000000e+00  2.0958703580018992e-01 -5.6373553100365048e-01 0.0000000000000000e+00  3.9606826423846869e-01 -4.7916676203660052e-01 0.0000000000000000e+00  5.4341436941785792e-01 -3.4413886978899799e-01 0.0000000000000000e+00  6.3381759108750235e-01 -1.6984780213241507e-01 0.0000000000000000e+00  6.3826236048322504e-01 1.5692297487320386e-02 0.0000000000000000e+00  5.7082909231547774e-01 1.9436675352355998e-01 0.0000000000000000e+00  4.4813359867724190e-01 3.4483528610830289e-01 0.0000000000000000e+00  2.6536860984771471e-01 -2.9293402520822798e-01 0.0000000000000000e+00  3.3750092791426567e-01 -2.3019414877424563e-01 0.0000000000000000e+00  3.8367574292110823e-01 -1.4612314313387598e-01 0.0000000000000000e+00  3.9899629749104915e-01 -5.8672106919605921e-02 0.0000000000000000e+00  3.8937097350385586e-01 1.8918263610691412e-02 0.0000000000000000e+00  3.7544180890103246e-01 1.0439743254216671e-01 0.0000000000000000e+00  3.3191414737495967e-01 1.8931197347660941e-01 0.0000000000000000e+00  2.5972056976148478e-01 2.6773242203569431e-01 0.0000000000000000e+00  1.5906560201905806e-01 3.0029336577081589e-01 0.0000000000000000e+00  6.5613708061444967e-02 3.0323565968576477e-01 0.0000000000000000e+00  -1.4848060446652949e-02 2.9183707854064239e-01 0.0000000000000000e+00  -8.2961485035531538e-02 2.7371524402852593e-01 0.0000000000000000e+00  -1.4122693562225802e-01 2.4615262365666196e-01 0.0000000000000000e+00  -1.9996073324664693e-01 2.1001603176941877e-01 0.0000000000000000e+00  -2.5012005584795333e-01 1.5002220274279357e-01 0.0000000000000000e+00  -2.8880392322289683e-01 8.3302058349024280e-02 0.0000000000000000e+00  -2.9826819068106364e-01 7.4057110566452290e-03 0.0000000000000000e+00  -2.9353325780852468e-01 -7.0226109315848842e-02 0.0000000000000000e+00  -2.5730392829406495e-01 -1.4792507963636789e-01 0.0000000000000000e+00  -2.0853899592706193e-01 -2.2335403869517625e-01 0.0000000000000000e+00  -1.4779565285620458e-01 -2.6930295990099878e-01 0.0000000000000000e+00  -6.8288679062162835e-02 -3.1556721469574484e-01 0.0000000000000000e+00  3.7841451560065883e-03 -3.4106135371577495e-01 0.0000000000000000e+00  8.8954923568263275e-02 -3.4387799023458587e-01 0.0000000000000000e+00  6.0394673035497470e-01 -6.6005794500891612e-02 -1.4695328188296564e-01  6.1536899966084901e-01 8.1327751005186855e-03 -8.5956591184245798e-02  6.0735096005013323e-01 -1.8368346350150622e-01 -8.0080436561538459e-02  4.8118778884642061e-01 2.7762047728338529e-01 -6.8578155464901036e-02  3.9506504017616445e-01 3.4067953421818781e-01 -1.5084822788335392e-01  3.5575800245028427e-01 3.9173128306995647e-01 -8.1102295099349270e-02  5.2183544165268336e-01 1.8573936276555228e-01 -1.3293110315302931e-01  5.4417811083248524e-01 9.4477333804332056e-02 -2.1014686178137673e-01  2.0331331484476173e-01 4.5978684259697511e-01 -1.7177465275649439e-01  5.0624102623501777e-01 -3.7001031816994379e-01 -7.7384637321940175e-02  3.6000629782528204e-01 -4.9129866304852865e-01 -6.5804046994550017e-02  4.0006408617084416e-01 -4.5109244621570349e-01 -1.4036365238408308e-01  5.4358114270772029e-01 -2.7175504829151403e-01 -3.2058228451927762e-01  4.8472592938309822e-01 -3.0256430477145252e-01 -3.6113186728306435e-01  5.8708949209866945e-01 -1.7764429850643376e-01 -3.6301153599247493e-01  -2.5074099056553598e-02 4.6203945082647691e-01 -3.8366699975555912e-01  -2.5924810370149667e-02 4.4534612660411865e-01 -4.4174130235684445e-01  -1.4983748804195329e-01 4.2452946367411759e-01 -4.3115296566363237e-01  3.3408484311496295e-01 3.5942492467005838e-01 -2.2450687757871540e-01  4.6205091094613049e-01 2.3990586240841646e-01 -2.0948132911603934e-01  2.6582639570633765e-01 3.8353800723625836e-01 -2.8746383980279550e-01  1.6611604787557685e-01 4.5395985579445686e-01 -2.4272610585433566e-01  8.6776379306214929e-02 4.7348787955644195e-01 -2.7437012981137493e-01  -5.2903321450735108e-01 -2.0669874680997849e-01 -1.6878140170892159e-01  -5.0851702133182108e-01 -2.2247749821135346e-01 -1.1009230151802175e-01  -5.5582185594708611e-01 -5.7778409867219029e-02 -9.8574616865795953e-02  -1.7810400401472962e-01 3.8077857428202594e-01 -4.9893787925030669e-01  5.5214460654892061e-01 -2.0004055264797849e-01 -3.7724275039405225e-01  4.2815770973237793e-01 -2.8024220218839158e-01 -4.0914771370304087e-01  1.9779749223275919e-01 -5.5314037434276841e-01 -8.7716419404479287e-02  -4.3892628121642591e-01 1.7415863774221324e-01 -4.3937333100975473e-01  -4.9797149475570063e-01 4.7232961252885522e-02 -4.1463927839574410e-01  -4.3640256259816246e-01 2.2400497766147520e-01 -3.4210746704334671e-01  -5.1368820538530935e-01 -1.7802693556460691e-01 -3.3604293254318914e-02  -4.4361701494934408e-01 -3.2396052331627334e-01 -9.5369505016099490e-02  5.7804968418072779e-03 5.1803270079241537e-01 -6.4042118905031045e-02  -9.4557812341829748e-04 5.1841146679352712e-01 -1.3640780977023625e-01  -1.7077032883235410e-01 5.1585386972558978e-01 -7.5204296723734659e-02  -4.8638106663652930e-01 -7.6416633769029199e-02 -4.9601097943869921e-01  1.8872684516472296e-01 4.7856476951662796e-01 -8.7391949934186933e-02  5.8344875972232801e-01 -2.1878224250899098e-01 -1.5407841167332065e-01  -5.0350321868044112e-01 1.9860630769809140e-01 -1.8418593192271410e-01  -4.2009647308799553e-01 3.4091711021215909e-01 -1.8294837156382796e-01  -4.7533044871912644e-01 2.1192257739747697e-01 -2.5178825449899284e-01  2.9917408746186752e-01 -4.7967022627145228e-01 -1.9116929728453638e-01  -5.4967861024372322e-01 1.1458494002530321e-01 -1.2692879307943822e-01  -5.5649635169012435e-01 -7.0956794419609934e-02 -1.8972001869765867e-01  -3.8313570871477992e-01 3.3181372685623689e-01 -2.7318079838749504e-01  -4.0822795221597347e-01 -3.8144129765063611e-01 -2.5108226665480587e-01  -2.5760701933266295e-01 -4.5668305547722565e-01 -2.9184960470376092e-01  -2.9148051396036379e-01 -4.6926590792856876e-01 -2.1741910695728658e-01  -1.7015900829855030e-01 5.1083268391944947e-01 -1.5780991746306286e-01  -5.5935629980502000e-01 1.0506375406702338e-01 -5.4416261518880890e-02  -5.2238714220168980e-01 2.4834217768987926e-01 -6.7072270261254910e-02  -4.9554423217123034e-01 2.6636324013627827e-01 -1.2356267735173074e-01  5.7169705599308529e-01 -2.2846554911146891e-01 -2.5139883237185451e-01  5.2348023958430301e-01 -3.2451817262915272e-01 -1.7784094665609787e-01  4.7204387584652652e-01 -3.5769776424816679e-01 -2.3395420311603693e-01  8.9571172940591682e-03 5.1233812638853227e-01 -2.1143571452236165e-01  -4.4895610747472270e-01 -3.5063637156715161e-01 -1.7612128762988166e-01  -1.4107487405818592e-01 4.9787674857371428e-01 -2.2812824069134854e-01  4.0828461482661166e-01 -3.8160433983247238e-01 -2.9403779479227127e-01  1.8504485205001911e-01 -4.7484414850934104e-01 -2.5065242671162791e-01  -4.2988569273297872e-01 3.7387238393660832e-01 -1.0685432079426384e-01  -3.6156366333555290e-01 -3.7264879484074764e-01 -4.4525743244175758e-01  -1.4980030294386093e-01 -4.2874036977740754e-01 -4.6671513332074399e-01  -2.0531138928765050e-01 -4.4583593951859130e-01 -3.7874794638390108e-01  -1.3942415436257528e-02 -5.6924810162622541e-01 -6.3175578975289276e-02  -2.4466440377701190e-01 -4.9417391128606836e-01 -4.8291639624482879e-02  -1.2104165501469435e-01 -5.4151644436825774e-01 -1.2693515433844552e-01  5.8400077472333445e-01 1.4132564863680996e-01 -4.9624284682387922e-02  -5.1718708571526129e-01 -2.4316392273516613e-01 -2.5385054524988138e-01  5.9228669343558571e-01 -8.0486863855169302e-02 -2.3334184788556300e-01  5.4711972200130354e-01 5.1131195741982112e-02 -2.8474695626837448e-01  5.9069451818432128e-01 -1.1475100775646917e-01 -3.2277014610944860e-01  5.5576884140787164e-01 -3.4635421302777938e-03 -3.5346437905892752e-01  4.8419786335049186e-01 6.6540509256480210e-02 -3.7366092591828187e-01  4.6930204215810656e-01 1.4707175553668800e-01 -3.3105692706742340e-01  4.3704628723214251e-01 2.3315122001296837e-01 -2.8350905783292268e-01  -3.3153550401844567e-01 4.5943173708060697e-01 -7.7675640752422129e-02  -4.6273613288772575e-01 3.6014258739075872e-01 -3.7038151692683083e-02  -4.0758586853122947e-01 -3.6237193626288738e-01 -3.1535035310754099e-02  -5.6517059302170558e-01 5.0931751051432115e-04 -2.3741100721939058e-02  -1.6255737438521217e-01 -5.2235494490430723e-01 -2.0268205970994591e-01  -7.9069422170514658e-02 -4.9150548675943123e-01 -2.9756037241284577e-01  -3.2246063290667443e-01 -4.5196952178999017e-01 -1.3153070949200887e-01  -3.7910691075932440e-01 -3.8080203894238412e-01 -3.4019067327363695e-01  3.9333386140065968e-01 2.2834230074054906e-01 -3.5743985933050704e-01  5.7553183776535954e-01 -9.2360753072401547e-02 -3.7850190100802811e-01  5.3201438512635602e-01 -1.2055142019284593e-01 -3.9687648941304787e-01  4.3610986827515030e-01 -2.0049086747188560e-01 -4.5319227606855705e-01  4.7999353534890937e-01 -1.7505820230220081e-02 -4.3065511261163053e-01  1.4193307604065822e-01 -4.3433755636436333e-01 -3.3827536008102116e-01  7.3247099359003767e-02 -4.8388893631930485e-01 -2.8492989070512864e-01  -2.9686734990054867e-02 4.8345490519971784e-01 -3.0903901814034879e-01  1.2579498482009763e-01 4.4659798498937470e-01 -3.3957854545470828e-01  -5.4478555978009946e-01 -9.6122545097589607e-02 -2.9525848176872993e-01  -5.3798810163579136e-01 6.3516747564054177e-02 -2.2503962675560105e-01  -3.1135010848073869e-01 4.5315551020477529e-01 -1.5735475703561272e-01  -5.4913372320114680e-03 -5.3198516932216955e-01 -2.1378600693121841e-01  7.1384732290355524e-02 -5.5201349099278085e-01 -1.4300140637797709e-01  -5.1666125875456892e-01 4.8217823731480210e-02 -3.2748229945849089e-01  3.5435500456413266e-01 2.9030801982791221e-01 -3.1931577553296553e-01  -3.0650354328357493e-01 4.2880592506888970e-01 -2.1331140869680704e-01  -5.2290062433162032e-01 -1.0731126322210681e-01 -4.0274725935168365e-01  -1.9667727746791086e-01 4.3262760183545185e-01 -3.6431258103002151e-01  -4.8176007167891127e-01 -2.6773108895580788e-01 -3.7874119084526736e-01  2.7987446772269114e-01 3.4886811246877297e-01 -3.6335887753267676e-01  2.3051380438280888e-01 3.9646256731091156e-01 -3.1645027658435271e-01  -2.2786418551414983e-01 4.3761198101110976e-01 -2.8860848338824086e-01  3.2076640121404343e-01 -3.6703983678262669e-01 -3.7984699588372084e-01  3.1575230588501546e-01 -3.9992252115036520e-01 -3.3165390131719680e-01  -3.4957771655332109e-01 3.2520779088220159e-01 -3.7403032810223868e-01  -3.1094064970938828e-01 3.3904916405103286e-01 -4.4749481242065053e-01  -4.1932336113735996e-01 1.3590946349116856e-01 -5.0954834803957261e-01  2.7673488392244905e-01 -2.9638912662358835e-01 -5.2179881001229877e-01  2.7210911127941567e-01 -3.2113709265792989e-01 -4.7078010886384625e-01  2.0622712799369408e-01 -3.7932516706843822e-01 -4.1703431090738807e-01  3.6181301403994665e-01 2.5033483443684929e-01 -4.0607928563518769e-01  -5.1100535229859502e-02 -1.3492016231092052e-01 -7.4663922385965464e-01  -1.6256586190031549e-01 1.1537969283617024e-02 -7.4869334967521872e-01  -1.4852509706983007e-02 3.2355991630460192e-02 -7.2532882568420853e-01  -4.2194684396720661e-01 -2.3746719406288332e-02 -5.6401075822656355e-01  -3.9619787079238677e-01 -1.8923204072321512e-01 -5.8218260860734850e-01  2.2855598108179540e-01 3.7329709006985579e-01 -4.4161691793364788e-01  -2.5965254284787281e-01 -3.8081697333891484e-01 -5.1763666118686469e-01  -2.5739926151304454e-01 -3.3690142623126179e-01 -5.8068192013269104e-01  -6.9979849097498270e-02 -4.0057963634143945e-01 -5.3091019559902497e-01  -4.0985634931999032e-01 -2.7695165487364320e-01 -5.1920959386356125e-01  -7.8246656009646077e-03 -4.4465236144787196e-01 -3.9563814978924405e-01  -4.7782897399999003e-01 -2.3492286177619665e-01 -4.5845815029046105e-01  4.0717554270634093e-01 9.4425005305388748e-02 -4.9978437926229535e-01  4.1975124493571525e-01 1.4106766403496232e-01 -4.3459905352131617e-01  1.5676673831328305e-01 4.2167757536039790e-01 -4.0137569185390393e-01  4.0696386361892156e-02 4.3326595755822073e-01 -4.7425733014473381e-01  -3.7429612354567982e-01 -6.5078193345181667e-02 -6.2801276613665125e-01  -2.7129834411818404e-01 -2.3270364606921726e-01 -6.4895277071651636e-01  3.2174418767400631e-01 2.8116602456247131e-01 -4.9000244565412704e-01  6.5533888404373866e-02 3.1650013688163620e-01 -6.8597985112097060e-01  2.0410126853336860e-01 3.1098657971586036e-01 -6.3021627439957095e-01  2.2402014407261692e-01 2.2758098612306446e-01 -6.8548238256358107e-01  6.7951814856173451e-02 -3.9922316943081976e-01 -4.6169021886731870e-01  1.1805413164083063e-01 -3.7332882476022122e-01 -5.1317911173442599e-01  8.6826602814431678e-02 -3.6521313160807656e-01 -5.7071299921450225e-01  -2.1373945019557994e-01 -9.6681503299099192e-02 -7.3517665162196555e-01  4.8610276463387933e-02 2.0085015038572770e-01 -7.3719857322523608e-01  1.8005099979065980e-01 1.0242770024436385e-01 -7.2732410364734645e-01  -3.6318827012380717e-01 1.2018155507158493e-01 -5.9473946500264219e-01  1.3546500166643224e-01 4.0448294146041569e-01 -5.1935882045497495e-01  2.1457112364061601e-01 3.4816239613039318e-01 -5.6132398444781617e-01  1.8159700788743748e-02 3.9833572458344102e-01 -5.9160724152440325e-01  3.3423165569243607e-01 -1.5023756706330604e-01 -6.1476964843373183e-01  3.9033959788382749e-01 -1.5801256647446882e-01 -5.3020312607071840e-01  2.4912403795430640e-01 -2.8512633024876027e-01 -5.8462922110310678e-01  -3.2782502634783245e-01 2.5807290842297503e-01 -5.2562583874539892e-01  -2.4892887946933323e-01 2.9054352529326721e-01 -5.8478401881560349e-01  -8.9083379559984410e-02 -3.5560458370713410e-01 -6.0724313860089640e-01  -6.4339245977585349e-02 4.0424961216003047e-01 -5.4503642928611773e-01  1.7884772771015847e-01 -2.6762646289769904e-01 -6.6944936793564080e-01  3.8278337053217809e-01 3.4294547338458346e-02 -5.7167996719396685e-01  6.9097181933335847e-02 3.6523853049919142e-01 -6.3391001567584959e-01  -1.0854427434880405e-01 3.1163768861037766e-01 -6.7098748716388845e-01  -1.0068404735895091e-01 1.9953207923905478e-01 -7.3206147909199470e-01  -1.4898602221415011e-01 3.3634934224720237e-01 -6.1841061584148282e-01  3.3024385590109273e-01 2.2220760584625004e-01 -5.5705493464133526e-01  -2.7572567886054050e-01 1.7464350286978750e-01 -6.5400438533290250e-01  -3.0672539339580107e-01 -6.9169221537328171e-02 -6.8102921237158132e-01  -3.4996721701957867e-01 6.1661447137919462e-02 -6.4150438668174881e-01  8.9105503637107675e-02 -3.3488690115948816e-01 -6.2435005628804152e-01  -4.9862103730848512e-02 -3.0118562188863923e-01 -6.6351885720224424e-01  3.0474050362525418e-01 1.9025250836370181e-01 -6.2976401096543633e-01  2.8368894104984427e-01 -8.4959134672296030e-02 -6.9829744542742767e-01  3.3708872363679654e-01 4.8319068512995021e-02 -6.4350931522683474e-01  4.4315299014942761e-01 -7.5542039956636151e-02 -4.8588269401526502e-01  -1.8488704307091286e-01 -2.0787894914206040e-01 -7.0571720677669514e-01  -2.2124070666518680e-01 1.1588973541599058e-01 -7.1155253129393281e-01  -2.8025510337288134e-01 3.4856964126177004e-02 -7.0431670829920223e-01  -4.5960806163507324e-03 -2.3738762075908823e-01 -7.1556649759066460e-01  1.3982674496681519e-01 -1.2647676823277906e-01 -7.4758025079863277e-01  2.7234790126789366e-01 8.7903915683155379e-02 -6.9527011728545296e-01  3.4692548060888656e-01 -1.2810730439777152e-01 -1.6319726974942955e-01  3.4118790582619418e-01 -1.3647937469015173e-01 -2.0667055194744258e-01  3.3615906325584433e-01 -5.9653306872846361e-02 -2.0986608146069580e-01  1.8362846497532245e-01 -3.2777086768145614e-01 -6.0361244589211667e-02  1.1308473656691423e-01 -3.3105383019251716e-01 -8.2056885008612052e-02  3.8288402331235283e-01 -1.2098429215083933e-01 -4.5470448610640188e-02  3.6080489618130407e-01 -1.7671415135940996e-01 -5.0094970300785878e-02  3.0972663324469824e-01 -2.1600520341150367e-01 -1.4825114074641615e-01  -2.7290487536393915e-01 -9.4413830745526395e-02 -1.4289383489067356e-01  -2.5828087093722163e-01 -1.3628680714220898e-01 -1.2252327857031450e-01  -2.8305269088798457e-01 -7.9487753012677978e-02 -8.6904057622056233e-02  2.8417413304400924e-02 -3.3355743607566563e-01 -8.0619070843904461e-02  -4.9873962157463966e-02 2.3990722065012393e-01 -1.2213988129155189e-01  -1.2573803987240964e-01 2.2503263908475604e-01 -9.2123145788026592e-02  -7.7666511594497473e-02 2.5886464670241066e-01 -6.8495329102878214e-02  -2.4731664578319587e-01 1.0514729273436629e-01 -1.4542846590933831e-01  -2.7468051948495043e-01 6.6861202797158473e-02 -1.0103810107915885e-01  -2.4174582671635608e-01 1.3753567444762252e-01 -8.0262271571228450e-02  2.7537031209506174e-01 -2.8168374841774663e-01 -5.5490806146944086e-02  2.4904688653493023e-01 -2.8218037922409922e-01 -1.0394769354923952e-01  3.1990653417979692e-01 -2.3085812362157246e-01 -8.2564859765653018e-02  -1.8416634921868955e-01 -2.1274454632003800e-01 -2.1256037490718532e-01  -2.1670412332705430e-01 -1.9739740468589084e-01 -1.6022635025500018e-01  -2.4051074792147567e-01 -1.6537684140544273e-01 -1.8764333953869167e-01  -2.2287122046233709e-01 1.4100923506287275e-01 -1.8213491552990027e-01  -2.6480681756006658e-01 7.6196454453310747e-02 -1.9376556334523498e-01  -2.4662861491439370e-01 1.0969342579404148e-01 -2.3070131199748989e-01  -2.7979513692636460e-01 4.9069734654974911e-02 -2.4895550081553403e-01  -2.9424482288752740e-01 -1.3283284591783795e-02 -2.3275283625941559e-01  -1.0328746470099330e-01 2.2205930339339472e-01 -1.4675847224290406e-01  -8.2086816323224954e-02 2.0877532538659249e-01 -1.8032322253733971e-01  3.5608020854419314e-01 -1.1146054839713677e-01 -1.2966419280792504e-01  3.4572051385300456e-01 -1.6713768625146561e-01 -1.1957380131880534e-01  -2.3138519559608070e-01 -1.8465821421355982e-01 -8.1804348794490278e-02  -1.6616374698066674e-01 -2.4426255067157820e-01 -1.3250307797380448e-01  -1.6539104083024894e-01 -2.3574929137772796e-01 -1.8619435738165627e-01  -2.8525574175741808e-01 1.8421771466857902e-03 -1.8254405411963490e-01  5.4347300788755618e-02 2.0794779897074731e-01 -1.7385657562298670e-01  6.6419439372977047e-03 2.1165829860032412e-01 -1.7794871334740126e-01  5.0598891101985288e-02 2.3791408135858050e-01 -1.2950354160017191e-01  3.4639317234787903e-01 9.0367577428585782e-02 -8.1288843456223850e-02  3.4016776822835815e-01 4.6347292994397264e-02 -1.1664837215878837e-01  2.9184782668819720e-01 8.7573519460993537e-02 -1.5162222117364479e-01  3.1800628210781934e-01 2.0984364124195694e-02 -1.5234910532233098e-01  -1.5813484871631112e-01 1.9433528335760186e-01 -1.4761320620709323e-01  -2.1337232809441423e-01 1.5859013658374660e-01 -1.2667964966843637e-01  -1.8835716702720048e-01 1.9809555201123782e-01 -7.4661980264849381e-02  -1.1371330303940483e-01 -2.4055605239405897e-01 -2.4648307710413639e-01  -7.1461276526776848e-02 1.9820262879113906e-01 -2.0864125788844756e-01  -2.1057280854066954e-02 1.9784929876873036e-01 -2.2476236254742443e-01  -8.5542749729744516e-02 1.8762202997082242e-01 -2.7067988514807528e-01  -1.5570913156848967e-01 -2.2859858065186223e-01 -2.6073960633792104e-01  -2.3114130509457622e-02 2.6967252917987405e-01 -6.7460422885801216e-02  1.9234878261698546e-01 -1.8142853153010302e-01 -