<?xml version="1.0"?>
<VTKFile type="UnstructuredGrid"  version="0.1"  >
<UnstructuredGrid>
<Piece  NumberOfPoints="590" NumberOfCells="1766">
<Points>
<DataArray  type="Float64"  NumberOfComponents="3"  format="ascii">0.2169536096466424 2.191246731834082 -1.279842535191774e-15  0.3561148577204415 2.909109907882608 -1.344168893485162e-15  -0.4317074544048956 2.205800531111064 -1.326526457068221e-15  -1.024334530315472 1.924061689698624 -1.339778147418636e-15  -1.495769632747541 1.457726816132164 -8.766440132221178e-16  -1.800742688242423 0.8714364535401556 -9.001029407433888e-16  -1.937985586600569 0.2269339762208493 -4.362914441620858e-16  -1.913131005546894 -0.424616997774209 -4.210719135613776e-16  -1.700126466975578 -1.030909489785041 -4.278697913808851e-16  -1.296443147083815 -1.52620059280947 -4.170862377953591e-16  -0.7311721210791573 -1.824963961500584 -4.539215185641058e-16  -0.09327776053986542 -1.900734779527336 1.047303541121121e-17  0.5398481858686175 -1.770946364088749 -4.368543897918119e-16  1.105150325448546 -1.448724470200478 -4.374360332684264e-16  1.516846803527122 -0.9489044173464182 -4.42265539053852e-16  1.752976631525256 -0.3504678530182278 -4.434984223021433e-16  1.794838421834811 0.2865741552293268 -4.361103543173578e-16  1.636873922245504 0.9023832093871245 -8.758807366431601e-16  1.279305711112987 1.442135271321884 -8.707681247811496e-16  0.7985680182449434 1.884027827841633 -8.945558368909604e-16  -0.3411469571419276 3.006338565568019 -1.309524625737462e-15  -1.034128957679225 2.872816492801803 -1.319526328495547e-15  -1.658903611136379 2.546716662871797 -1.314580003417509e-15  -2.178799614350637 2.06671704445355 -1.308255041971635e-15  -2.558775881463528 1.476336132876465 -8.735286372331404e-16  -2.794411544711786 0.8168360961149834 -8.793949595382499e-16  -2.887751298114115 0.122720494823185 -3.924845898284471e-16  -2.83385273637486 -0.5769879421211573 -3.967309537216741e-16  -2.625466618792664 -1.244031915114909 -4.214419516417502e-16  -2.259776524982692 -1.841056473648229 -4.276951437981758e-16  -1.763965156980203 -2.336038870459761 3.780206166307729e-17  -1.163376256163951 -2.694103980787486 -1.667865883791586e-17  -0.4866290751443501 -2.881181585194073 7.723727585187861e-19  0.2185265572583728 -2.887141516207238 2.491735858759711e-17  0.8947480525954239 -2.699959370317469 3.819144027485027e-17  1.50680462287624 -2.361582444677797 6.010893996887418e-18  2.032330540442455 -1.905792520951419 -4.391824489840646e-16  2.461060785014475 -1.353098192570141 -4.227840394001123e-16  2.781104493211212 -0.7276808813811133 -4.235651641403611e-16  2.939851753451206 -0.03643676949810115 -4.342272343148144e-16  2.871890971303013 0.6736864229692592 -4.41781546012891e-16  2.597457516213043 1.330536391082414 -9.345794143554571e-16  2.163222892020458 1.886997021145324 -8.709151490041828e-16  1.620774244547099 2.330386373840216 -1.306211017153886e-15  1.015341033472204 2.668803850778 -1.317494313861278e-15  -0.9214193090591443 -1.942182600209144 -1.206936594502284  -0.9739585241822174 -1.849864833800141 -0.5246832562966786  -1.345881750152796 -1.679617990531411 -0.7678346459007273  -0.4546386993821343 -2.00379936905416 -0.673926194671689  -1.823639595122155 0.9158262732477916 -0.8434882838022644  -1.484861562975583 1.448481555728192 -0.5716804421043514  2.022872773184769 -0.04756450960154322 -0.5977768078168445  1.963538651071561 0.5337931098896826 -0.5528380723759937  -2.007461693085362 0.44249599785163 -0.7031983416683604  1.709542529429183 1.083271588562227 -0.5669481585795401  -1.598050878493265 1.140801053869352 -1.390976838180067  -1.791886722586252 0.9817021428033464 -2.037677836616043  -2.013957343726883 0.4793613878308661 -1.568619424489921  -2.169527622847566 0.299477511855777 -2.425896879520133  1.400415963345033 1.481085939316295 -0.7165841881955304  1.674726536940099 1.220717071411721 -1.19102327914598  1.337326363879062 -1.584289605472688 -2.163486684492793  1.54547395987426 -1.366290584706773 -1.653754137053494  1.166481859229604 -1.684674389163723 -1.531785360396337  1.23324785800383 1.574608155399626 -1.276166746164588  1.424657333401115 -1.390759095150983 -1.058876948836303  0.9516528236220881 -1.789803472914415 -2.643852310283949  1.437919210375592 -1.396278894633572 -2.743942424582603  1.054686073520084 -1.577298014742247 -3.41072724472093  -2.014480496973761 -0.6615812429974459 -0.6690111019273571  -1.720112332734665 -1.301208680173287 -0.6516155093271153  1.434535789929667 -1.25605510212188 -0.492863555757701  1.864915522366601 -0.7170947946081374 -0.7395981212585711  -2.115321940822513 -0.09105697813569924 -1.149318956999241  -2.134443260669086 -0.1553648178460823 -1.848157080616285  -2.073157030076179 -0.6255081810218173 -1.42716479409266  -2.063908034120164 -0.06426890043811072 -0.5409635865550917  -1.985516740581431 -0.818310021296999 -2.141383044170409  1.868980230667139 -0.9290323851065103 -1.452143210052023  2.124648438279932 -0.3045828446475 -1.31753751236916  2.1192634111632 0.3692165549869001 -1.284755725414787  0.9551135500611507 1.8083357673623 -0.7745534812045382  1.162803400472782 1.681024243867587 -0.3981145974434513  1.549897967950004 1.263335247329615 -1.686310926241943  1.505158914106241 1.193077894189458 -2.278770522263738  1.089084198260823 1.545551203654046 -1.826880155540633  2.030866810196692 -0.5344900915375141 -1.926636157440761  1.017948872484173 1.490766577060497 -2.502677898914427  2.118488918889304 0.103800850397896 -2.053733789932774  1.918249189555633 0.8166844469613155 -1.749756941614433  -0.2350536979562611 -2.077681200329522 -1.280540106766569  0.5890700240717489 1.861459202803285 -1.363662291063428  -1.896323330906707 -1.093202628883631 -1.101223474787445  0.4781492141748348 1.709152404233373 -2.062938026172622  -1.177580951015263 1.565223463814164 -1.199214462766217  1.974137682246128 -0.4296706804578252 -2.621257017719599  -0.1629934564146207 1.822421736608704 -1.626456403800434  -0.1512515984196623 1.745082802909351 -2.475145631710289  0.3966097853488869 1.715477340414903 -2.937363244291979  -0.6523687998247614 1.907649959398618 -1.02964183193057  0.00817643000106528 2.109806407531815 -0.8900871332217358  0.7678433012442955 -1.939455956675229 -1.900442689092221  0.02675729527757416 -2.099688466995155 -1.86208253534318  0.294286744925926 -2.051927867328831 -2.425447266625782  0.3314041186118895 -2.022654683987879 -1.377260017020188  -0.501822572261084 -1.926623222701507 -3.106474719183711  -0.948084855785534 -1.780295853432153 -3.010589338726429  -0.7640157445761196 -1.668120766394457 -3.729506331603295  0.9718543492350709 -1.660011194343617 -0.6044837338803485  0.2763798468747229 -1.953518102078828 -0.6957723357001808  0.8519334761659114 -1.816033050044853 -1.193086738815224  1.873959839920613 0.7121463178011548 -2.517315285193853  -1.357075788920371 -1.42121149561056 -3.423126361726366  -1.536124158900029 -1.566797818724668 -1.404125628087774  -1.845566967989914 -1.143346166594828 -1.698401082295427  1.936058536016036 0.8613563631097902 -1.098556228169077  -2.120155982296452 -0.4060058708503989 -2.500200839478005  1.774206199235001 -1.043650028186679 -2.256459726775706  1.97626890766692 0.2678946723051649 -3.002789074196016  -1.052449718345158 -1.830900701090193 -1.902673347520038  -1.568756306315704 -1.425282856822486 -2.173159924570523  1.620336477314292 0.9920785638437559 -3.143568817092215  -0.07255829157245752 -1.908243542566441 -3.453515756525954  -0.04566427579179339 -2.012686357133992 -2.906867648395989  0.5007914136573209 -1.911096304093316 -3.036183927143826  0.4941746726459167 2.073006346403238 -0.5857769158566576  -0.1352143847739425 -1.722062323025239 -4.060521357281246  0.6236744863704133 -1.277453901586759 -5.013820364021724  0.4014825478488155 -1.566148456963871 -4.452265863376619  -0.1118446396131398 -1.385198612093198 -4.834230552373176  -1.366274159023447 -1.544137331129853 -2.823343472849095  -1.82594598180907 -1.043756755295337 -2.968541597579719  -1.695004493064065 0.444445412533192 -5.079016582987313  -1.705162959508425 1.041413993064971 -4.836808786750337  -1.475095620538536 0.9430945467647714 -5.522429002414216  -1.145749329093565 -1.234806026507432 -4.095911819143391  0.9735262348785629 1.702996098339472 -4.563974402907416  1.285935453014351 1.401618345593362 -3.888103728029805  1.53424090301122 1.283674727990209 -4.697063050689136  1.761568711600589 -0.82142136029528 -3.030895787014696  -0.3331353865646486 2.185458472734305 -0.4874525338501808  -0.3830182742124877 1.916678502159523 -3.37377126068337  -0.8068752292005618 1.743893914275813 -2.726609798741338  -1.271086697541199 1.412096781770397 -2.082426411604944  -1.914424031189143 0.6615004267379101 -4.438501174383641  1.81614242437612 0.135908204017137 -5.183697325009997  1.572651602765691 -0.4732565280213691 -5.060740855107361  1.582829255664991 -0.2209264058809714 -5.689509709925592  1.341399199148531 1.280630142353957 -2.720949300051361  1.087618202405461 1.438926019952565 -3.135652189950271  1.488428166250659 -1.14899036244515 -3.379762811963948  1.846053660181836 0.6170770992885577 -4.609310231632106  1.677152840753775 0.9746945915171465 -4.022925770897676  1.891230704389871 0.4321659169156215 -3.774450472516758  -2.070173919238551 0.8202196963745272 -2.800414850608079  -1.73517056647605 1.290905764002386 -2.830635865975895  -2.13343061837166 -0.2903744743133553 -3.091812232409027  -2.201381596126995 0.4192618488203111 -3.204729130635867  -0.5289930255010823 -2.004080506426372 -2.36568989408202  -0.7919687841729929 2.031452962588804 -0.4153451353148225  -1.111981867230804 1.769023619098032 -0.6711219384088317  -1.093881849492444 -1.77682678200726 -2.402467444302941  -0.632319066764266 1.662788141258169 -2.124386069976935  -0.6355720815217178 -1.45769515562446 -4.288235346977533  -0.5581498094273377 -2.033223856030715 -1.734802379285993  -0.8458239457326742 -1.104551365446225 -4.731920257766108  1.718363733270354 -0.6441300935641047 -3.82284849886429  1.9
[...]
<PointData  Vectors="f_46104-0"> 
<DataArray  type="Float64"  Name="f_46104-0"  NumberOfComponents="3" format="ascii">1.2527019918567692e-01 3.7998856509233331e-01 0.0000000000000000e+00  5.4260802395003457e-02 2.6060005339529696e-01 0.0000000000000000e+00  -1.2864822403051973e-02 3.9412286763041299e-01 0.0000000000000000e+00  -1.5503371059683124e-01 3.7831967430142921e-01 0.0000000000000000e+00  -2.7634523171453396e-01 3.2275364495247566e-01 0.0000000000000000e+00  -3.7579531403588884e-01 2.3088514002608099e-01 0.0000000000000000e+00  -4.2801237254942925e-01 1.0605618733504991e-01 0.0000000000000000e+00  -4.3490505229420301e-01 -3.5067565685694552e-02 0.0000000000000000e+00  -3.9642693573113758e-01 -1.7825518412280991e-01 0.0000000000000000e+00  -3.1592019646300401e-01 -3.1020535584324915e-01 0.0000000000000000e+00  -2.0168867711474406e-01 -4.1843830144047306e-01 0.0000000000000000e+00  -6.4392148136813293e-02 -4.8704450283784134e-01 0.0000000000000000e+00  8.1664908104104511e-02 -4.9981769453588398e-01 0.0000000000000000e+00  2.1236722095598354e-01 -4.5077378921048383e-01 0.0000000000000000e+00  3.1880551878893554e-01 -3.5297122027674172e-01 0.0000000000000000e+00  3.8419076845620098e-01 -2.2015184246113448e-01 0.0000000000000000e+00  4.0634450339909362e-01 -6.7028560145561203e-02 0.0000000000000000e+00  3.9428749024492987e-01 9.0614140393635315e-02 0.0000000000000000e+00  3.4566958654041680e-01 2.3129116149985576e-01 0.0000000000000000e+00  2.5262739411342505e-01 3.3383204787809334e-01 0.0000000000000000e+00  -1.5905782672817326e-02 2.5326680574111687e-01 0.0000000000000000e+00  -7.7337618718450976e-02 2.3798753897055375e-01 0.0000000000000000e+00  -1.3541447828738412e-01 2.1493445997850830e-01 0.0000000000000000e+00  -1.8305235206266948e-01 1.8076375190469487e-01 0.0000000000000000e+00  -2.2962088948941292e-01 1.3373651859659932e-01 0.0000000000000000e+00  -2.5993434205004468e-01 7.4146658067162044e-02 0.0000000000000000e+00  -2.7239875174087880e-01 1.0073657829318268e-02 0.0000000000000000e+00  -2.6567309243960802e-01 -5.3804299521695430e-02 0.0000000000000000e+00  -2.4345694392054640e-01 -1.1817132185918294e-01 0.0000000000000000e+00  -2.1126934929533789e-01 -1.7512279647464832e-01 0.0000000000000000e+00  -1.7169723945235146e-01 -2.2307661767356765e-01 0.0000000000000000e+00  -1.2163061150509516e-01 -2.6451381707249416e-01 0.0000000000000000e+00  -6.6227449964780069e-02 -2.9909305580248619e-01 0.0000000000000000e+00  -6.0068727992952896e-03 -3.1488890094000416e-01 0.0000000000000000e+00  6.3642125563082075e-02 -3.1700684105029264e-01 0.0000000000000000e+00  1.3038213607177582e-01 -2.9614398462882885e-01 0.0000000000000000e+00  1.8511696554640605e-01 -2.4872092979468280e-01 0.0000000000000000e+00  2.1783587799825588e-01 -1.8709659986493229e-01 0.0000000000000000e+00  2.2815578819755816e-01 -1.1978439392690685e-01 0.0000000000000000e+00  2.2205278712592469e-01 -6.0795873204213369e-02 0.0000000000000000e+00  2.1944622158341121e-01 -1.0170684546269274e-02 0.0000000000000000e+00  2.2144311480373718e-01 4.5777835625408887e-02 0.0000000000000000e+00  2.1520018745135019e-01 1.1785746481165721e-01 0.0000000000000000e+00  1.8603651649334871e-01 1.8995361767029395e-01 0.0000000000000000e+00  1.2347530078666902e-01 2.4180551928669475e-01 0.0000000000000000e+00  -1.8536086530589288e-01 -4.1010178887371357e-01 -8.3735392751071266e-02  -2.1234943699124559e-01 -3.9791725969874409e-01 -2.4376562354770124e-02  -2.7353357545640333e-01 -3.3871824630447134e-01 -4.3135852289692536e-02  -1.0601490104032339e-01 -4.5839522444145780e-01 -3.5313676102704132e-02  -3.6048032494096199e-01 2.1721487654457433e-01 -5.5488564286927250e-02  -2.8592083276575991e-01 3.0868129767255670e-01 -4.4170841228710588e-02  3.8895107687007818e-01 -1.0961916743772399e-01 -1.5977289062481113e-02  3.8799894475371866e-01 2.0771836295445056e-02 -1.6902239392005559e-02  -4.0456222519473478e-01 1.2345576519751032e-01 -4.0549693957344854e-02  3.6199480682907537e-01 1.5679347981646641e-01 -2.0488022754189084e-02  -3.1104139333606490e-01 2.7349152361652418e-01 -8.9468859405015505e-02  -3.1929458921855941e-01 2.2325908218907339e-01 -1.1804004555951378e-01  -3.8096036427881458e-01 1.2358454570753602e-01 -9.6764288011396235e-02  -3.7028869199228265e-01 4.2561248814288070e-02 -1.5790362460638779e-01  3.0816706095516644e-01 2.6006137784401279e-01 -4.4029046474198953e-02  3.2130880595744810e-01 2.1029196806066877e-01 -7.7711282866560774e-02  2.4422610517127352e-01 -3.6015540693199510e-01 -1.6384375397331385e-01  2.8530166985656691e-01 -3.4110464355538717e-01 -1.1190865327082117e-01  2.1664321688402449e-01 -4.0983460931705995e-01 -1.0084997175450815e-01  2.5664457910047717e-01 3.1694724949631986e-01 -9.4130802178725173e-02  2.7587899104109248e-01 -3.7988844944807187e-01 -5.5750977718054442e-02  1.7993901560232300e-01 -3.8989503430462497e-01 -2.1275231477507017e-01  2.7232851519538520e-01 -3.0935660037482188e-01 -2.1655471158924677e-01  2.0804371335821789e-01 -3.3547402781331653e-01 -2.7589275782672190e-01  -4.0684403838415617e-01 -1.0517696967274201e-01 -3.3268157101759559e-02  -3.4548928484096608e-01 -2.4286431585740595e-01 -3.3882098510226416e-02  2.8973442171709146e-01 -3.7972188935642198e-01 -1.5724659926770693e-02  3.5714177436741451e-01 -2.5101614390534693e-01 -2.8169518528074304e-02  -4.1062261973304454e-01 8.3037015010631651e-03 -7.0637027161716576e-02  -3.9731454743087247e-01 -2.7963564282251333e-02 -1.2387886290592610e-01  -3.9459293198986461e-01 -1.1238805357203460e-01 -9.6291661033292619e-02  -4.2417600760758539e-01 2.0842879156221381e-02 -2.4653464107703301e-02  -3.7224721065127991e-01 -1.8089787444175215e-01 -1.5834359563132708e-01  3.3583621258941637e-01 -2.5983486289392999e-01 -9.1357065352459577e-02  3.6494538937216880e-01 -1.3181415276950081e-01 -7.9105122544335535e-02  3.6617058607598063e-01 9.9835913312452205e-03 -7.8255209577322404e-02  2.3138184245625176e-01 3.4467079011568064e-01 -5.9168404473304327e-02  2.8758420393281131e-01 2.9479047176203049e-01 -2.2204190145724587e-02  2.9455181720237372e-01 2.5441915713224089e-01 -1.2036456367035918e-01  2.8386394702759116e-01 2.6929082077775451e-01 -1.5804233348411417e-01  2.2316619512386371e-01 3.5302192772511165e-01 -1.3310792377604730e-01  3.5705147259487013e-01 -1.5834889326881582e-01 -1.3629167934498007e-01  2.0733456134394870e-01 3.7206392108452879e-01 -1.6432126773555078e-01  3.5616247551155383e-01 -1.4842572186805656e-02 -1.4517482593608388e-01  3.3803857709086232e-01 1.3699222647162576e-01 -1.2156390624835391e-01  -5.6423729061625301e-02 -4.6634884313827113e-01 -8.6304693676454006e-02  1.3526006077537128e-01 3.9997113294122816e-01 -1.0924244617905392e-01  -3.6395316413455253e-01 -2.0125952018940141e-01 -7.1405588321215505e-02  1.0829347556934549e-01 4.2845708292682250e-01 -1.4360845270222117e-01  -2.2554610236184433e-01 3.5538992601800423e-01 -9.1151643114411915e-02  3.5542825963728314e-01 -1.1270985508576378e-01 -1.9336358104728904e-01  -2.2222022207364179e-02 4.3574664888537123e-01 -1.2570109563415618e-01  -8.8175569400048160e-03 4.5101594433857506e-01 -1.4645838967687250e-01  1.0321414201412966e-01 4.4246201765633286e-01 -1.7106790342105729e-01  -1.1422773530688542e-01 4.0269366936007089e-01 -8.9772746327095948e-02  3.1131938669867125e-02 4.0742931027816132e-01 -7.7870097214047029e-02  1.3636747547875364e-01 -4.3557770183500483e-01 -1.4057799560579534e-01  -4.3375293652699520e-03 -4.6043484797571410e-01 -1.4058207462560598e-01  5.0176661670026934e-02 -4.4136008800672738e-01 -1.9417924533154765e-01  5.5704894222990867e-02 -4.7368197299987091e-01 -9.1317072650458575e-02  -9.1550160036571224e-02 -4.2159430125371278e-01 -2.6314629415520119e-01  -1.7722547132229918e-01 -4.0088155871752967e-01 -2.5427713401629143e-01  -1.4115698002751714e-01 -3.8980923036079551e-01 -3.2779381118631812e-01  1.9103081986403567e-01 -4.5351483472355192e-01 -2.6798693533270621e-02  4.4097280647312387e-02 -4.8960406637323500e-01 -3.4848106295148784e-02  1.6063094389017621e-01 -4.5363817105703902e-01 -7.0852113106974035e-02  3.2766420090801751e-01 1.4396839640126030e-01 -1.7378682530466594e-01  -2.5050465114481490e-01 -3.4264660229318911e-01 -2.9599002207682634e-01  -2.9107627219418075e-01 -3.1428603649823078e-01 -1.0212908270445424e-01  -3.5051154016856001e-01 -2.3312308350697120e-01 -1.2554833523895478e-01  3.5321204661509931e-01 1.1411060326012032e-01 -6.5207950632325262e-02  -3.8365411867363369e-01 -1.0956248280476628e-01 -1.8195941997047718e-01  3.2494222433763204e-01 -2.5184623930943223e-01 -1.6926392371722554e-01  3.3904020138815533e-01 4.8724218903461521e-02 -2.0730731830053351e-01  -2.0874008738053326e-01 -4.0040711725006684e-01 -1.4935928982226609e-01  -3.0264418670768523e-01 -3.1474617181236447e-01 -1.7074653858306865e-01  2.9592711320010195e-01 2.2761476503706682e-01 -2.0091636454562578e-01  -6.5023003863297043e-03 -4.1156356318575260e-01 -2.9367738645286273e-01  -7.1882081635212033e-03 -4.3293389264793347e-01 -2.4136975006835285e-01  9.8414501281417835e-02 -4.0969522734832375e-01 -2.5163526639405126e-01  1.4772300888661544e-01 3.8073380970823734e-01 -4.8857978633797275e-02  -1.9666505205249311e-02 -3.8515652167440484e-01 -3.5004708526761913e-01  1.2657463332760288e-01 -2.8510547162242234e-01 -4.0485043786095110e-01  8.3139072066185982e-02 -3.3945731707573312e-01 -3.7159058172877873e-01  -1.8140806338148168e-02 -3.4548697624351732e-01 -4.1266257026418224e-01  -2.5750337720110489e-01 -3.5369104955075975e-01 -2.3336874679836372e-01  -3.3146503552618356e-01 -2.5663828801257366e-01 -2.4051932354991867e-01  -2.8968211766428581e-01 -4.2919378819345558e-02 -3.9169194821715708e-01  -2.6830749394900216e-01 9.1917503968305961e-02 -3.4558098088678763e-01  -2.4172146204808326e-01 5.3725125725545761e-02 -4.0025501848279027e-01  -2.2673059763933040e-01 -3.4328077549775121e-01 -3.6706974945896431e-01  1.6039680087970926e-01 3.7631056032209043e-01 -2.6837352784491492e-01  2.3720679742033929e-01 3.2317541236363473e-01 -2.2603738135322568e-01  2.4569406380209532e-01 2.6064150184984070e-01 -2.7887643599152401e-01  3.3471574399325049e-01 -1.8904462335730965e-01 -2.3073228676873167e-01  -2.3159982483547684e-02 3.9564404460005503e-01 -4.2923218079889219e-02  -3.9566204325972125e-02 4.3584613670619105e-01 -1.9412360267154877e-01  -1.2324183188963636e-01 4.0763213613703358e-01 -1.4888678247758536e-01  -2.2907116205280531e-01 3.4288630909932216e-01 -1.1756324189705003e-01  -3.0876509256058582e-01 1.9706547747674698e-02 -3.3252101296311137e-01  2.9644819409874185e-01 1.3931080167032877e-02 -3.3860702553311323e-01  2.8373239234987430e-01 -1.1313407213050312e-01 -3.5841427148566735e-01  2.6267079273252736e-01 -6.2279107535405179e-02 -3.8918129035592386e-01  2.5884411832790588e-01 3.0978274240837694e-01 -1.7718405369820228e-01  2.2073422203442006e-01 3.6063617424605188e-01 -1.9034298455987791e-01  2.9239942193143870e-01 -2.5331620029890906e-01 -2.6360306581821741e-01  3.0066927821516509e-01 1.1729462712746033e-01 -2.8676849487475298e-01  2.9021059343295430e-01 2.0819153586335107e-01 -2.4328789936435541e-01  3.2654340490058820e-01 8.8526026651441728e-02 -2.4430806521297571e-01  -3.2995471639285640e-01 1.3351985282509798e-01 -1.7732507476696807e-01  -2.7537416909796369e-01 2.4571075241640475e-01 -1.6719424090493978e-01  -3.7059314966464324e-01 -1.1414207293327437e-01 -2.3676710123967204e-01  -3.4937016380787511e-01 2.3544743473180363e-02 -2.2752943802984291e-01  -1.0588193508871116e-01 -4.4014509399419882e-01 -1.9076040890391760e-01  -1.2276902487919955e-01 3.8489515783321360e-01 -3.8286920621081494e-02  -2.0437044960652073e-01 3.6234626111437157e-01 -5.7404495506299384e-02  -2.1283767328694547e-01 -3.9330084542046789e-01 -1.9316427423682342e-01  -1.1135423758495991e-01 4.2456254543827399e-01 -1.2905300893499705e-01  -1.2493897799474717e-01 -3.7389078781194379e-01 -3.8090881439122548e-01  -1.1608927559264243e-01 -4.4444436933791531e-01 -1.3165811414082171e-01  -1.7287292495800166e-01 -3.3665105440216964e-01 -4.1683971098105843e-01  3.2736689715247813e-01 -1.4089894038281314e-01 -2.8049962719127691e-01  3.4701084873739085e-01 -5.2414384065848703e-02 -2.4436377276788065e-01  3.2362208312136670e-01 -3.0939083982980016e-02 -2.9844723044728239e-01  2.8702338504156705e-01 -1.7850577209035429e-01 -3.2584771222896708e-01  -3.3265945541057618e-01 -2.2933395271252938e-01 -3.1352771921398886e-01  -3.0334338646820747e-01 1.2888938858505616e-01 -2.4274819500303413e-01  -1.3718125791476796e-01 3.7081952156000458e-01 -2.5459480410966512e-01  -1.3953294477768116e-01 3.7109584338268031e-01 -2.0172754423572539e-01  -1.4889633704802652e-01 4.0720032598386119e-01 -1.1559282054253615e-01  -2.3392794335276040e-01 2.6102952379096883e-01 -2.3494812555645617e-01  -1.3719289922823258e-01 3.3827400083027803e-01 -3.2274325899298345e-01  -2.0586127094652187e-01 2.7223431648802648e-01 -2.9156891458327322e-01  -2.2766659616672524e-01 1.9322975768883707e-01 -3.4018521378626365e-01  -7.3750250778581605e-02 -3.1605271509327126e-01 -4.5047958996771026e-01  2.8059140330319532e-02 -2.9973068000513914e-01 -4.4568312916742131e-01  -2.3651803118180333e-02 -2.5629145379454926e-01 -4.8151500959054022e-01  1.0306700589420316e-01 -3.7700088646438179e-01 -3.0706431931898737e-01  1.8591027732913817e-01 -2.9631554201683491e-01 -3.4254178486588588e-01  -2.0548980526583674e-01 3.3276321656357521e-01 -1.6451527371185792e-01  2.7103673635313646e-01 -2.4323236167691201e-01 -3.0259718045466422e-01  -6.5797844187356860e-02 3.5572922817335673e-01 -3.6188066298996380e-01  6.6194432333574804e-02 3.9686643944525940e-01 -3.1712170521138333e-01  -8.8409657368763613e-03 3.3548261824684145e-01 -3.9628760193183621e-01  -3.5397229258169871e-01 -1.0555960519330451e-01 -2.9795538215716372e-01  -3.2454806219854848e-01 -1.5170740492455290e-01 -3.7258794110862181e-01  -3.1382373874213949e-02 4.1128392848960005e-01 -3.0481429660038051e-01  1.7808306239972801e-01 2.6630583023973614e-01 -3.6139080881315666e-01  1.7854148095918118e-01 3.1674853313424373e-01 -3.1677864070142064e-01  2.4181387445324762e-01 2.1681681701976288e-01 -3.2436614029258443e-01  -2.8288246621385638e-01 -2.7325716864514032e-01 -3.8739501518432268e-01  -1.5536113369945620e-01 -2.7817044986346839e-01 -4.6014535696370096e-01  -2.1788873006142434e-01 -1.9983148083008609e-01 -4.5781000805437677e-01  -1.4238817923486799e-01 -1.9681788779948764e-01 -4.8785313754451437e-01  -2.5523270554303040e-01 -2.5037430246210335e-01 -4.2394853317096787e-01  -1.9363681883414977e-01 6.3902495417942712e-02 -4.4425786939008272e-01  -1.9443064898125398e-01 1.9235248391367243e-01 -3.8948195772921573e-01  4.7882331444393529e-02 4.5079529497239768e-01 -2.1828133796528038e-01  5.2621572071037431e-02 4.3761548620522261e-01 -2.6283115467081036e-01  -4.6747953153192474e-02 4.2782337196014525e-01 -2.5787274731197513e-01  1.0345424865484525e-01 3.2335061318032421e-01 -3.7372925233718107e-01  -3.3811929584927514e-01 -1.6739212156466395e-02 -2.9911899715834633e-01  2.3272790353315484e-01 -2.1663266931720065e-01 -3.7050878906028228e-01  2.1240581245007964e-01 -1.9019933657994087e-01 -4.0635356961080876e-01  1.4932563678517793e-01 4.1900229508179954e-01 -2.1522053656181575e-01  -2.6636927898522156e-01 1.5634227423455832e-01 -3.0304004575887550e-01  -2.7989796543822348e-01 -1.4579707932811134e-01 -4.1923642758949192e-01  -2.2828610560380783e-01 -8.8878995293402180e-02 -4.5456781325367202e-01  6.4877887585370136e-02 -8.7696886949169703e-02 -5.0742043335651521e-01  5.9865083064418359e-02 -1.8049890763463328e-01 -4.9478585161224359e-01  -3.7685980863127314e-02 -1.4028134515317384e-01 -5.1225361926672375e-01  1.4291055478015785e-01 -1.2220956228558701e-01 -4.7140272905638564e-01  2.0109376443786042e-01 -1.3215483987603791e-01 -4.3203746651638608e-01  1.1852646120271607e-01 -2.2866137537036019e-01 -4.5241894667963334e-01  2.4673134452942336e-01 6.6507039481430358e-02 -3.8739489504073304e-01  1.7204447782589716e-01 1.6034478297044027e-01 -4.1565851504388512e-01  2.1115017339842515e-01 1.8315277464571850e-01 -3.7423968461516949e-01  1.2720413186619858e-01 2.4327625417776541e-01 -4.0900264082398102e-01  6.2119696333634511e-02 1.7060627774657955e-01 -4.4938198517622485e-01  2.1561939984691569e-01 -2.9199185296601329e-02 -4.3075904996428549e-01  2.4894723927798654e-02 2.6339268846318831e-01 -4.3399104522012388e-01  -1.2953314373524960e-01 2.1723444552420504e-01 -4.2511958867351890e-01  2.7166006282552746e-01 1.1871550626855368e-01 -3.3695824016335335e-01  -1.3587504274963397e-01 2.8651071144747220e-01 -3.7707031881570124e-01  -1.3868593228200229e-01 -7.3215929783312775e-02 -4.9559112636054387e-01  -1.1923597184854755e-01 6.9010450980947421e-02 -4.8709279317285381e-01  1.4258313979088744e-01 -3.7371083713110681e-02 -4.7441736275663443e-01  1.6240472692485780e-01 8.3666428194142078e-02 -4.4139890603804938e-01  8.8929713705245342e-02 4.6726970309174928e-02 -4.7247739238764508e-01  -2.4231420095274916e-02 -1.3786370837782605e-02 -4.9862524072434322e-01  -4.2945197416935393e-02 1.3681857187003763e-01 -4.6454115475093949e-01  7.3214600225790794e-03 8.3890080268105655e-02 -4.6163384804155244e-01  -7.3304190191771229e-02 2.0842802727891349e-01 -4.4639549618850438e-01  -8.0668278161806051e-02 -5.2556551275559832e-02 -5.0361716328956019e-01  -1.2147997577156361e-01 -2.4903956173322678e-01 -1.0259723953822365e-01  -1.1888926818080814e-01 -2.6301919707291066e-01 -5.0560259516166273e-02  -1.5571497675630766e-01 -2.2470762234167782e-01 -5.5845748459524135e-02  -8.2225204152766532e-02 -2.8295625814748665e-01 -7.5212305575909327e-02  1.7213847546435568e-01 1.6826549995562334e-02 -1.5525350105643196e-01  1.6559222070204235e-01 6.6838373097029655e-02 -1.5626525198120711e-01  1.7479588673282373e-01 3.2907772019808025e-02 -1.3231297672042910e-01  -5.7476294419524572e-02 2.3618231601889988e-01 -2.4358931011962615e-01  -1.8112008761085777e-02 2.5191095057774798e-01 -1.9764901643019012e-01  -5.2859628596247446e-03 2.5428843001184165e-01 -2.4888397375704741e-01  2.0139616527479989e-01 4.0787135574371844e-02 -8.5671071498545845e-02  1.9061589540982796e-01 1.0112464686467114e-01 -8.5902330599141472e-02  2.1459764154898855e-01 6.7773222481465098e-02 -4.9303467630618096e-02  1.1271533224263566e-01 1.1495077767935459e-02 -4.0594078538603751e-01  1.2458504286112922e-01 -2.4413241929221847e-02 -3.9060486030653596e-01  1.0098571673648463e-01 -2.8319436787729111e-02 -4.1098389641261546e-01  -2.0217085944122351e-01 1.1702719273447823e-01 -7.0342442905425406e-02  2.6405716159155477e-03 2.3158362760717111e-01 -7.8603899931339913e-02  2.0767157340648247e-02 2.3875730286727412e-01 -5.1059671781931673e-02  4.1675192396561297e-02 2.2899017795201840e-01 -7.6504268615460488e-02  3.8416885298056987e-02 2.5304253722692155e-01 -2.0515923303697686e-01  7.3152015340147994e-02 2.3235890397598299e-01 -5.2925973352779675e-02  -1.8600727340436990e-01 3.0137521557442374e-02 -2.1963306734357108e-01  -1.9333840852192816e-01 1.9699827154772788e-02 -1.8544230733632974e-01  -1.7911185284029257e-01 5.5627300096562304e-02 -1.9420287706669939e-01  -2.1650588100775309e-01 5.0781015722523859e-03 -1.0775516505094591e-01  -2.3308658598739770e-01 3.0444760038576137e-02 -7.3929628004484188e-02  -2.0678937585274271e-01 6.5275807601477345e-02 -1.0195329996432194e-01  1.5984383082657133e-01 1.3469800843280041e-01 -1.3432477501325674e-01  1.3073978841356668e-01 1.8644988562439263e-01 -1.1510377225909989e-01  1.6891246179040820e-01 1.3558369306773982e-01 -1.0533159713816875e-01  1.1079617479341021e-01 -7.0368965399739303e-02 -3.8699352187019370e-01  -3.7360203859494609e-02 -3.0604178659374476e-01 -5.4424268630484010e-02  4.6684145817352758e-02 -2.8854668170577535e-01 -1.2206092946485070e-01  4.7497464768335215e-03 -2.8573428593587896e-01 -1.3860454080022613e-01  4.0708555573583764e-02 -2.7242481632750914e-01 -1.6094073233530276e-01  -1.8064834969381482e-01 5.9487471821379666e-02 -1.6295944872850879e-01  2.1990882818226871e-02 2.4936897372708106e-01 -1.5940808624