<?xml version="1.0"?>
<VTKFile type="UnstructuredGrid"  version="0.1"  >
<UnstructuredGrid>
<Piece  NumberOfPoints="635" NumberOfCells="1900">
<Points>
<DataArray  type="Float64"  NumberOfComponents="3"  format="ascii">0.3029887267882117 2.104623601242497 -1.329936682687858e-15  1.486878203209711 -2.371155410488282 4.375226925047351e-17  -0.3476810424282114 2.051500932661833 -1.332458034533409e-15  -0.9202327692896262 1.728508732373966 -1.326391949980164e-15  -1.34611251446125 1.233946752481772 -8.824494598546736e-16  -1.561204840265396 0.6188569307079417 -8.746779950979042e-16  -1.619769142144071 -0.02920278170348317 -4.299641510671172e-16  -1.457392910571325 -0.6426465394125324 -4.27627049094922e-16  -1.077223615741427 -1.146805986186588 3.107993677689318e-18  -0.5101572848690896 -1.445912008789509 -4.249632407329792e-18  0.1278771965209579 -1.554533044644612 -2.570910638030867e-18  0.7769631178881757 -1.483311043678434 9.561324869533381e-18  1.373076381145935 -1.214503551750049 0  1.831780778427221 -0.7523926917432535 4.517144979021696e-18  2.096825168994795 -0.1627952941518948 -4.240845048420101e-16  2.139109881330868 0.4795487449426779 -4.304316430840197e-16  1.911554816763486 1.080270427194656 -8.459174789190024e-16  1.508774774905548 1.588577614761215 -8.692545396332559e-16  0.9417254771342132 1.915900464436178 -1.3072627917023e-15  2.093613251561163 -1.952069832425667 3.339597229559451e-18  2.592306462722071 -1.410002202776837 1.515015986836308e-17  2.957964307267685 -0.7705126430139267 -3.681030541559601e-18  3.180188364250114 -0.05967528473898684 -5.249017907024753e-16  3.167976066760557 0.6950478037421383 -8.830725293488838e-16  2.84250102373471 1.377256300563367 -8.72744123836455e-16  2.315286575001082 1.903950734012716 -8.626108637353435e-16  1.67101867117531 2.262216462609074 -1.282560123108844e-15  0.9909005448394909 2.491251665189805 -1.29752160709208e-15  0.2981606889685726 2.661449364652583 -1.279079862109759e-15  -0.4198836218967168 2.698243553860875 -1.303627713288914e-15  -1.124684868349334 2.514770907982713 -1.354769138949719e-15  -1.751281198674403 2.137555910612924 -1.322197209314641e-15  -2.244684502755635 1.592778271480339 -8.465987673534636e-16  -2.560173631548441 0.9299890921294436 -8.829508589558102e-16  -2.673475523459158 0.2068580174457988 -4.344504997159976e-16  -2.588107971718617 -0.5192888990620802 -3.663010914420685e-16  -2.332956369060613 -1.202878979790787 2.651635602797924e-17  -1.912736922933746 -1.801636969791057 1.850414852934351e-17  -1.339394054539397 -2.258298235586855 2.138668474061319e-17  -0.6665622583575622 -2.551721119408162 6.036417273072788e-17  0.05591924804646667 -2.663117167094444 -8.943927118501662e-18  0.7856804053449389 -2.603442795312026 4.427190213670064e-17  2.456065862843128 0.191291533688382 -1.12194784337227  2.235599784760808 -0.4319433049836991 -0.6529399525428315  2.389501334483446 -0.3945323085789168 -1.414914820563841  -1.882697999958988 0.183574258871676 -0.5231546361139903  -2.148325778584306 0.02886366901311522 -1.081446314934114  -1.857762375467325 -0.374526907832493 -0.510425522777689  -2.156563266471011 -0.5749121546966049 -1.228586812527185  -0.6972660920276159 2.000275920717297 -0.8551161470204316  -0.09300088467644643 2.181346263510756 -0.6462199253277912  -0.01587708472295517 2.073785810597654 -1.253214879201261  1.771047862669595 -0.9788255574504494 -3.8497172813659  1.558474224204392 -1.284767526790519 -4.502030183960141  1.861008659161497 -0.8116142331743887 -4.584520810115368  -1.925264212544446 0.6426110871423222 -0.8680874588995211  -2.230982620084432 0.4297001772255301 -1.581279174024063  1.208426770112413 -1.853018506927059 -2.542275494954695  0.6581395430164849 -2.095596845990752 -2.820867278189977  1.107486205263623 -1.818741581397443 -3.204776604950702  -2.234688191144762 1.021326418152444 -3.541896549023858  -1.988198942439546 1.302967030483271 -2.879909736820404  -1.879620869524032 1.491305752871614 -3.435160760917598  2.221617015599838 -0.4871462313127599 -2.185128048377211  1.959195777462648 -0.9908901021365418 -2.382157551566089  1.928785116973958 -0.6251682117166873 -3.137298175169646  0.3900790978769697 -1.89230165062524 -0.8497498902988688  0.9711385647701458 -1.815140088003795 -1.104967057127885  0.7168433401042739 -1.689321363439287 -0.5070282650831186  2.106491885359704 -0.9997655862707929 -1.689732443345505  1.423557119712407 -1.500730387099354 -3.769864682499767  -1.939501340706967 -1.227458427492366 -2.020325334242889  -2.215511219217536 -0.7426855906591441 -1.857600649638456  -2.05827774989986 -0.9782229657338225 -2.66170396079076  -1.96533437840562 -1.101191409944092 -1.375776702947015  2.110319266695256 1.250512589209223 -0.9869006324515796  2.311039120856569 0.7326573105896811 -0.7508424600193412  2.313539493976615 0.8243117161782753 -1.652729088702909  0.6238135017322064 -2.034124618249122 -1.503880305362226  1.266828488091985 -1.857389645837756 -1.73497331171906  -0.1894246275915675 1.975873760048454 -3.276939927868871  0.08003518918300748 1.901942332073226 -3.842841674459424  -0.4882283864331144 1.980058250831977 -3.824248247088381  -0.3074321820994882 1.943301870895228 -4.403827033053519  -1.162471631410978 -1.764794881261717 -1.211937748470662  -1.582689794831917 -1.409261780657354 -1.027520160813012  -1.578925835107717 -1.575983753758377 -1.658233069226462  -0.8668724226281634 1.056820096871166 -6.325644098094831  -1.008420311784987 0.4435723541649613 -6.652697317358102  -1.404143564804662 0.7486912003301464 -5.967225288827722  -0.4536766496806217 0.8094837480369323 -7.042545091369182  -1.118386613334174 -1.883939068253377 -1.939519188254258  -0.6178121692749227 -1.985447485003152 -1.267576841823158  -0.2100352233028323 -1.860281294863424 -0.7061878433975549  -0.8179654066650409 -1.679401504621201 -0.6207628294287653  1.330839712293179 -1.471076862519613 -0.6483566783818238  1.825102005708196 -1.032000405535718 -0.549291636288194  2.4161188824151 0.1673615004629903 -1.787609786880699  2.144599705837102 0.5143451745430426 -2.498912031330625  0.6685179293323886 -2.039952653488456 -3.501083992220732  0.2607239968892551 -2.187090626489502 -3.144137690738447  0.1526211253857068 -2.136209033216215 -3.707345705803398  -1.268990354283333 1.592318614069965 -0.5744785885511151  -1.400606823513445 -1.437872763041856 -3.945245436757157  -1.452230359673292 -1.058452637899434 -4.654750232949346  -1.014416622099539 -1.481840760741783 -4.656798263311383  -1.762709756146056 -0.9790827231705261 -3.952717021887807  1.266849152365992 1.421145786148703 -5.584689738127069  1.094819649960847 1.347946591613509 -6.191071897644487  0.8365115666938945 1.621145129932333 -5.672387540577124  -2.28292580259829 -0.389919008020104 -3.10886474872212  -2.41840982577128 0.1665608616833034 -2.933591746884829  -2.299998441220574 0.1443594618479577 -3.713935732398268  -0.3792199668861517 -2.095104507867768 -1.88885715328064  0.4831047026145029 1.48027285699766 -6.253385136660505  0.523633465371768 1.785389016493348 -5.190802177691109  0.3686401231303503 1.749967208900916 -5.652791908462256  0.05976044813897215 -2.190881263127145 -2.498797495954128  -0.2555524242496032 -2.189203900200741 -3.193266841820428  -0.6205106957318361 -2.120072810020649 -2.597317632765023  0.702569063923327 -2.101008745830517 -2.171737224942501  0.230449173493526 -2.144013031717038 -1.907412453184841  0.6479075856988894 1.708188245505228 -3.807959184503655  0.4109882931895341 1.827189673121714 -4.544759728394064  0.4450518347180762 1.796844723651115 -3.088740692239937  1.852465366609325 -0.743115455122199 -5.380882121860402  2.033350129082439 -0.3160180766936078 -4.92453878554142  2.032134656261531 -0.1918367243246535 -5.773354599531078  -0.366633692952114 -2.038770607872014 -3.952114402760521  -0.541413494456796 -1.821608634834725 -4.515343068009144  0.0937040237870139 -1.981345131934743 -4.441939498507864  -2.392486615062018 0.5294211476344728 -3.485470447281281  -2.186050011765112 0.6605533215074058 -4.083681915178256  -2.34110163743502 -0.1254495640375792 -1.683191880228514  -2.361077806703249 -0.327499800761008 -2.368500520425591  1.723946937813054 -1.4730297642833 -1.58263438312188  1.478564237012189 -1.599631080751132 -1.252703833881067  -1.671145982912887 1.214764026665844 -1.084308931948121  -1.632995011241499 1.379224584227355 -1.837392155540418  -1.962637536175653 0.9220893091529636 -1.45334418399088  -1.193190990586359 1.681249144470893 -1.235025953764991  -2.117513090149725 0.9469627535180751 -2.123202957816635  1.818583898151298 -1.276724901559794 -1.112385043995919  2.159058826227246 -0.8379507689693195 -1.065409905449946  2.312289293117249 0.1940151986652302 -0.5369236684269493  2.085681404862976 0.07750328199626967 -4.501255478684485  2.08901426196192 0.2568287928564683 -5.146350607029194  1.681119111494705 -1.48195519416955 -2.137022003710893  1.614580015878429 -1.311005058024237 -3.001614859177024  -0.8934818540488974 -1.819555873572881 -3.977487139853639  -1.067418172303761 1.815934125865017 -2.67033498237664  -1.515653032463726 1.691971582067351 -3.029609040941235  -1.612415429967046 1.513854938467269 -2.424720815566789  2.016966121266977 -0.3222180277285687 -4.014576895401321  -1.011979524733529 1.731331853067389 -2.032130157456566  1.596066771622393 -1.048172511696991 -5.731498408181739  1.804472514236517 -0.7141275693610735 -6.01119313339195  1.078313807537747 1.94051703335318 -1.427865930366814  0.4253629809515423 1.957295207457441 -1.710158463293397  0.6250277937018307 2.152283644356322 -0.8412101307429213  1.579547304347733 -1.183748816758713 -5.134720965059231  -2.394058661771358 0.2541357702590658 -2.309728450989491  1.139041868732281 -1.696784057902684 -4.384267220132818  0.6347129044303335 -1.978471952215378 -4.131267439433253  0.6769734800713186 -1.782699023926196 -4.985726246876265  1.618575339919748 1.179299899039197 -5.154566853354627  1.041618375968713 1.599020656831962 -4.975869485275291  1.453870663966744 1.307099200212881 -
[...]
<PointData  Vectors="f_4070736-0"> 
<DataArray  type="Float64"  Name="f_4070736-0"  NumberOfComponents="3" format="ascii">9.6606089203073037e-02 5.1255241515776029e-01 0.0000000000000000e+00  1.0887728972796809e-01 -3.2638048887972465e-01 0.0000000000000000e+00  -4.7384985191504927e-02 5.0610645965771250e-01 0.0000000000000000e+00  -1.8321141360991647e-01 4.5148399032228614e-01 0.0000000000000000e+00  -2.9751179613997614e-01 3.4676041199127350e-01 0.0000000000000000e+00  -3.8136461778687875e-01 2.0865413799023547e-01 0.0000000000000000e+00  -4.1307714528962175e-01 4.8310232914921931e-02 0.0000000000000000e+00  -3.9893235826369849e-01 -1.2446597927726073e-01 0.0000000000000000e+00  -3.3631359779061148e-01 -2.9486844989549427e-01 0.0000000000000000e+00  -2.2651541194713945e-01 -4.4123047744221500e-01 0.0000000000000000e+00  -8.5647717226786477e-02 -5.2538232080149827e-01 0.0000000000000000e+00  6.4710031054058134e-02 -5.3150384387071814e-01 0.0000000000000000e+00  2.0119037321943253e-01 -4.6478057586438404e-01 0.0000000000000000e+00  3.0304789428393458e-01 -3.4392665642890280e-01 0.0000000000000000e+00  3.6255879966562432e-01 -1.9038848533090880e-01 0.0000000000000000e+00  3.8118203494225400e-01 -2.0643329935109370e-02 0.0000000000000000e+00  3.7073679671946014e-01 1.5790883850853321e-01 0.0000000000000000e+00  3.1453712043681220e-01 3.1742157692935757e-01 0.0000000000000000e+00  2.2070384660155007e-01 4.5435004246798039e-01 0.0000000000000000e+00  1.7064489128414487e-01 -2.7441181402400211e-01 0.0000000000000000e+00  2.0493130475828736e-01 -2.0042405947455269e-01 0.0000000000000000e+00  2.1719683580011154e-01 -1.2092852877228119e-01 0.0000000000000000e+00  2.1040277894831974e-01 -4.8296291207255225e-02 0.0000000000000000e+00  2.0765352849708291e-01 2.6600111366422733e-03 0.0000000000000000e+00  2.2312440805993380e-01 6.6655020470424792e-02 0.0000000000000000e+00  2.3339126147056447e-01 1.6208562346525324e-01 0.0000000000000000e+00  2.1863507041101260e-01 2.7955486965941800e-01 0.0000000000000000e+00  1.4850691497187979e-01 3.7862461800686575e-01 0.0000000000000000e+00  4.4572446669589871e-02 4.1600676608614767e-01 0.0000000000000000e+00  -6.0900893495169757e-02 3.8083332759700028e-01 0.0000000000000000e+00  -1.3623896346508657e-01 3.2172841938997654e-01 0.0000000000000000e+00  -1.8770631087035292e-01 2.5025791381930973e-01 0.0000000000000000e+00  -2.2194322228120875e-01 1.8215531818882688e-01 0.0000000000000000e+00  -2.4768690196438684e-01 1.1280407690424603e-01 0.0000000000000000e+00  -2.6373072163374406e-01 4.0210778725647815e-02 0.0000000000000000e+00  -2.7165570032621866e-01 -3.7680190326837816e-02 0.0000000000000000e+00  -2.5592806900480453e-01 -1.1653328098312567e-01 0.0000000000000000e+00  -2.2903304092151405e-01 -1.9508347167574208e-01 0.0000000000000000e+00  -1.8472476699463961e-01 -2.6586098006702602e-01 0.0000000000000000e+00  -1.2380442965570418e-01 -3.2413537632302342e-01 0.0000000000000000e+00  -4.6173280828875195e-02 -3.6062202432196172e-01 0.0000000000000000e+00  3.7797078072771551e-02 -3.5929123815691244e-01 0.0000000000000000e+00  3.6536800669628805e-01 -3.7883699477985151e-02 -6.3322008620075240e-02  3.5649223367815763e-01 -1.9992489641568709e-01 -1.6293337702468567e-02  3.6217687879373323e-01 -1.4624464843367402e-01 -9.0106674632341566e-02  -4.0597444914074643e-01 8.1258771953008610e-02 1.3119051511477495e-02  -3.9392531576743595e-01 4.1919971118243270e-02 -3.3285423552344380e-02  -4.1043794371752645e-01 -5.0380128221010630e-02 1.7218062963729915e-02  -3.9038789797223217e-01 -8.9741852831496438e-02 -4.9548761724102247e-02  -1.2629916139740138e-01 4.6579133151514035e-01 -5.6056730696506345e-02  -8.0734729294974182e-03 5.0018460997335845e-01 -4.5236824899294092e-02  -3.2437767541347424e-03 5.0747743669850354e-01 -1.0438483626149966e-01  3.5895177670358669e-01 -2.0288467467254262e-01 -2.6092765328179635e-01  2.9879964135428383e-01 -2.5292903206838208e-01 -3.0996048560751144e-01  3.5254336764222494e-01 -1.5310606326932222e-01 -3.0062887716556386e-01  -3.7242311683312013e-01 1.7846639061432223e-01 -1.7535774755575349e-02  -3.7327822165989638e-01 1.1630015004566543e-01 -7.9595114847672011e-02  2.0962856329807072e-01 -4.0642447139610099e-01 -1.8886924292922505e-01  1.0581854286960393e-01 -4.5064873602838346e-01 -2.0842637636448910e-01  2.1542462583108835e-01 -3.8917531173263298e-01 -2.3717970509625877e-01  -3.2249526784497834e-01 1.3447548527318470e-01 -2.6255567007160346e-01  -2.9462022073915606e-01 2.4604950645998039e-01 -1.8959850317403482e-01  -2.6837813522496046e-01 2.5269313675645028e-01 -2.4476837336180191e-01  3.8127834200811411e-01 -1.4097538132048687e-01 -1.6954644390624415e-01  3.5727949405703929e-01 -2.4564177236702023e-01 -1.8351376021133622e-01  3.9195704241150436e-01 -1.4483209380691089e-01 -2.2772110478684982e-01  1.0210861749909985e-02 -5.2560949764152842e-01 -1.8350014396923877e-02  1.2806279770007906e-01 -4.9187137656355834e-01 -4.1778251699008347e-02  7.3939183148563695e-02 -5.2622202524588158e-01 1.6673895412774305e-03  3.3624839127207845e-01 -2.6355642545583291e-01 -1.1639777572315936e-01  2.8469123654977430e-01 -3.0825561508759264e-01 -2.6819582319053453e-01  -3.6515319860776552e-01 -2.6367924840929680e-01 -1.3768943725740840e-01  -3.9183955270235776e-01 -1.4814547575391640e-01 -1.1849084088488646e-01  -3.9226184899858535e-01 -2.4211732645741380e-01 -2.0569943668827356e-01  -3.6794904629368297e-01 -2.1122304902912648e-01 -6.6996206497301841e-02  3.3210729741968237e-01 1.9306164924224073e-01 -6.2570819431808339e-02  3.6322749895626799e-01 6.9623133172726254e-02 -3.2490531177578358e-02  3.4825742977735025e-01 1.1838440887968035e-01 -1.2559604073450722e-01  6.1828742940677014e-02 -5.0026968184558673e-01 -8.0104233502457045e-02  1.8453303755901815e-01 -4.3563105860029300e-01 -1.1166425507418502e-01  5.5809198798316435e-03 4.8841165825555455e-01 -2.2393024641624923e-01  5.4202485485084412e-02 4.8256457234462913e-01 -2.6576624038987845e-01  -5.4183873215636273e-02 4.5314236430182941e-01 -2.6897157107564479e-01  -3.8700683093696328e-02 4.4004020658029142e-01 -3.1318911578424752e-01  -2.6422169867671830e-01 -3.9594191328001793e-01 -4.8108419721381614e-02  -3.3129052840815321e-01 -2.9476627125189736e-01 -2.9503050459872573e-02  -3.1739070763659066e-01 -3.3651882212066336e-01 -9.7551405963948915e-02  -2.1070337175208192e-01 1.5677686613177771e-01 -4.8869218900313932e-01  -2.3053517734324452e-01 1.3089351286349617e-02 -5.1309079909292099e-01  -2.6782461271463165e-01 5.1546630663340157e-02 -4.6446383333669128e-01  -1.6612226339666988e-01 1.2279968924936238e-01 -5.1993605475259941e-01  -2.4524970446569030e-01 -4.2384481911040778e-01 -1.2491241906323361e-01  -1.7200032531820866e-01 -4.7063379603320327e-01 -5.4121026672990659e-02  -1.1503501541018363e-01 -5.0555562456851677e-01 -4.4283701301733270e-03  -2.3569481774229809e-01 -4.3114671537223209e-01 6.4899868264764087e-03  2.0079065120470269e-01 -4.6092286365890678e-01 -8.2814301631427192e-03  2.9648803775808041e-01 -3.5645208064900924e-01 -8.3177542524293623e-03  3.7133826807416981e-01 -1.4415425634523086e-02 -1.3397631380500577e-01  3.6788106205920224e-01 1.0260816545074367e-01 -1.9823732618057893e-01  1.2172479077779713e-01 -4.2088069630680719e-01 -2.6234425936647637e-01  3.0376405653442913e-02 -4.5645441771889905e-01 -2.3638846253225626e-01  1.3614491052258268e-02 -4.3798484454295750e-01 -2.8693216944586258e-01  -2.4848666284578552e-01 3.8297771219335774e-01 -2.1830054943920370e-02  -3.0887394820968211e-01 -3.6854617401672707e-01 -3.3383985062362409e-01  -3.2386642080263728e-01 -3.1976423015397432e-01 -3.9708366278563301e-01  -2.3771753068109033e-01 -3.8592385229988413e-01 -3.9276825581799268e-01  -3.7457325693967825e-01 -2.9184097940312742e-01 -3.3696085552948368e-01  1.9699030593109557e-01 3.4698858949343891e-01 -3.8454399377109366e-01  1.3948663065086489e-01 3.3340073318037589e-01 -4.3910028251514632e-01  1.1384406495353849e-01 3.7946348669177643e-01 -4.0447848504542960e-01  -4.0986984743051036e-01 -1.4144176092762520e-01 -2.4583886550887085e-01  -3.8963946658678528e-01 -1.3735335849495545e-02 -2.1569577858818811e-01  -3.9056661554633654e-01 -5.6506470768720687e-02 -2.9905692925936012e-01  -1.1957066019282875e-01 -4.9209264352856330e-01 -1.1633003473596136e-01  2.1906939890268911e-02 3.4793589390745744e-01 -4.6371678462721211e-01  8.0267341734927639e-02 4.1864477875428185e-01 -3.6672897258870635e-01  2.8320978662400149e-02 3.8700389130993446e-01 -4.1460756490304640e-01  -2.5678864261172416e-02 -4.8618258088806998e-01 -1.7664997295558935e-01  -7.1902855271273200e-02 -4.6066730843394843e-01 -2.4430157932197644e-01  -1.5270911625839304e-01 -4.6551091683726603e-01 -1.8767456648464401e-01  9.1304011500385376e-02 -4.7195462694612272e-01 -1.5081431156833622e-01  -6.1159851768661788e-03 -4.9974143227896650e-01 -1.1978429119132120e-01  1.6219254239511513e-01 4.6603519166383855e-01 -2.5981864595694221e-01  9.1539598709867803e-02 4.5548545190229323e-01 -3.1342731748458613e-01  1.2408546540105393e-01 4.8963564158491812e-01 -2.2081606282722532e-01  3.3061250471946046e-01 -1.2786241926064301e-01 -3.5090460986045524e-01  3.6456724830823617e-01 -4.1434015668866439e-02 -3.1363381285086861e-01  3.3638805214630163e-01 -6.8982413439755213e-04 -3.6863384640531810e-01  -9.2437474728173374e-02 -4.3862984818635198e-01 -3.1670679865243628e-01  -1.3139176026997282e-01 -4.1870944853295006e-01 -3.6967969262638084e-01  2.7998960913364914e-03 -4.1754004862365629e-01 -3.4916622223392957e-01  -3.6152225887016110e-01 3.1915731549459363e-02 -2.6502233746700204e-01  -3.5180061141768160e-01 4.5864669209041253e-02 -3.2152548995268332e-01  -3.9025290698810033e-01 -7.1925751542025419e-03 -9.5362867714876592e-02  -4.0111879368870129e-01 -8.5311578960331771e-02 -1.6722599896754409e-01  2.6970397640221000e-01 -3.6940049876918912e-01 -9.9904352813616440e-02  2.2203760280060256e-01 -4.2473125958933983e-01 -6.1365576991898180e-02  -3.0779156147485021e-01 2.9897777923079188e-01 -4.5374576785828444e-02  -2.7178485828410248e-01 3.3404376746541969e-01 -1.0106464578204087e-01  -3.3865781329350286e-01 2.2841274355475563e-01 -6.8061211724305584e-02  -2.1472736811252915e-01 4.0761119831644199e-01 -7.1973143477413945e-02  -3.3200685103457184e-01 2.0825789891830404e-01 -1.2707214158942376e-01  2.8299241473833525e-01 -3.6159730812380092e-01 -5.3031167005269483e-02  3.3428939063046359e-01 -2.6355145893778126e-01 -5.0901931272573982e-02  3.7724919099969095e-01 -6.0137153277968716e-02 -1.1422051675814561e-02  3.6938457421029292e-01 4.0416466648215625e-02 -2.8347710983174690e-01  3.4781490124957865e-01 8.6456984452321820e-02 -3.2531178154003493e-01  2.8806610384060333e-01 -3.4951482941310197e-01 -1.5735575792088388e-01  3.2522171716560383e-01 -2.9871673580085167e-01 -2.2306335210273026e-01  -2.0324772902427704e-01 -4.2121184577233017e-01 -3.2946960457335489e-01  -1.5607498619264806e-01 4.3026510096459036e-01 -1.6900473584884357e-01  -2.2132358613292233e-01 3.4989308399406394e-01 -1.9962947379424179e-01  -2.4985356492444302e-01 3.4314599454849465e-01 -1.4706741278751159e-01  3.8608730464406249e-01 -5.5911930334411379e-02 -2.5766262744593887e-01  -1.6752353784423585e-01 4.4435658700060798e-01 -1.2689042206848908e-01  2.8066456403825757e-01 -1.9350332812435050e-01 -3.8118802455152556e-01  3.1023357778588978e-01 -1.1138065479823735e-01 -3.9010488235538204e-01  1.8701522110328084e-01 4.3424965039367713e-01 -1.2166979143485768e-01  8.1130890600872627e-02 5.0340860227418538e-01 -1.4355222716414764e-01  1.2171061989965692e-01 4.7784103635263631e-01 -6.4716451307896480e-02  2.8812977555690322e-01 -2.2530225763056169e-01 -3.4922531260153894e-01  -3.8225542148733060e-01 4.2018287224561690e-02 -1.5287231348111444e-01  2.1216062836253968e-01 -3.3377292082830556e-01 -3.1686958949045491e-01  1.1264214760948114e-01 -3.9662402821649073e-01 -3.1193383390409374e-01  1.1632441898679806e-01 -3.6249159129261233e-01 -3.7234476100242392e-01  2.7264782113383890e-01 2.9606710209421311e-01 -3.3867676734443247e-01  1.8558839371381580e-01 3.9902723111892890e-01 -3.3640927584569741e-01  2.7464916921246907e-01 3.3930594092666438e-01 -2.8904976392595033e-01  -1.6438782021807488e-01 -3.2457355106399410e-02 -5.3803951321069710e-01  -2.1391042105362604e-01 -9.6850790623882341e-02 -5.2327794231753355e-01  -2.6174540792606821e-01 -4.0860864182102280e-01 -2.7634713976420533e-01  -3.5037293635826716e-01 -3.4042109402848503e-01 -2.6467519443886534e-01  -3.7562831606877634e-01 -2.1597011657826165e-01 -3.8809531714307099e-01  -4.0419014820957838e-01 -1.7534355197802470e-01 -3.2461842405372793e-01  -3.7336554882086026e-01 -8.1694850209552736e-02 -3.7522658152531385e-01  -3.8098169197461429e-01 -1.7065057395741964e-01 -3.3655158281794845e-03  -3.3109646438061396e-01 -2.4735648497918369e-01 -4.3356846178133995e-01  -2.6262296422865627e-01 -3.1850273917780564e-01 -4.4848481732178586e-01  -3.5117283393818510e-01 1.0823748327034828e-01 -1.9994273210711164e-01  -1.5382630777972395e-01 3.3867563323796257e-01 -3.6797704533813080e-01  -2.5421247958174653e-01 2.1540932665265755e-01 -3.6637253692919797e-01  -1.7090892406854027e-01 3.6272613110502921e-01 -3.0100639685989811e-01  -2.3058634958082286e-01 1.9893969777552231e-01 -4.2194906063303383e-01  -6.1162414672672916e-02 -5.1177213858227522e-01 -5.6634195174566561e-02  3.0845353351677351e-01 1.9409057743512242e-01 -3.5956726446495946e-01  2.3129963712946947e-01 2.7433522261473925e-01 -4.1272682202802813e-01  3.4109423899797203e-01 1.8587851461562138e-01 -2.8549091451212305e-01  -4.2577121788603591e-03 -3.0750940195206561e-01 -4.7322441262181242e-01  -5.5023243705212159e-02 -3.7025624231209542e-01 -4.4475397154055557e-01  -1.4212957059536308e-01 -3.3654044285276746e-01 -4.6771663070707248e-01  -1.5758870217384932e-01 -3.8357223955653119e-01 -4.2694733442569371e-01  -3.0281081941310631e-02 4.0033530298385323e-01 -3.7894296372972736e-01  -1.4391211025874567e-01 2.9093954618964973e-01 -4.3841558786786344e-01  -2.6647870309449850e-01 -8.7399939825436368e-02 -4.9737324387542925e-01  1.6558482334007288e-01 6.9998574542029360e-02 -4.8765283257263681e-01  1.6230670917288639e-01 -3.1103878349534635e-02 -4.9958734602205324e-01  7.5438551116051911e-02 4.7007084721632141e-02 -4.9851156701549254e-01  1.9735561670818849e-01 -3.7373287947249895e-01 -2.7850241693015704e-01  2.6952573811706459e-01 3.2948545163308113e-01 -9.1853787841432694e-02  3.0439310438030914e-01 2.6207202442066435e-01 -1.3945188905227762e-01  2.4644057418394891e-01 3.7106397174178052e-01 -1.4884769781790036e-01  2.7221332381114521e-01 3.4635333533154794e-01 -2.0105521638503859e-01  -3.3439906107092243e-01 2.7861322726519006e-01 -3.0264702195517273e-03  -3.6184760570286567e-01 -2.5307470145132888e-01 1.9951846636325338e-02  -3.9826131863826275e-02 -4.0150809823392425e-01 -4.0085349440073548e-01  7.0469784714000103e-02 -3.5123984173922601e-01 -4.2406056103845863e-01  2.3281237242058855e-01 -1.4266834139307035e-02 -4.6643495426082754e-01  2.4177887601887352e-01 3.8905802453531080e-01 -3.7156081629984926e-02  2.2085261692337563e-01 4.3218568728820378e-01 -2.2593365872891444e-01  2.6038625105160296e-01 3.8720892656023581e-01 -2.5580949417008902e-01  -1.7508855568347494e-02 1.3453011591349776e-01 -5.3210901182690806e-01  -1.2967025557625880e-02 7.1276782690186660e-03 -5.1921895159981646e-01  3.9076389419496554e-01 1.9030902997423386e-02 -2.2750580726742756e-01  -5.6733153110187194e-03 -7.8435207042589494e-02 -5.3266462962492689e-01  -8.4268477766191813e-02 -2.2936457769055334e-03 -5.3648392928620148e-01  -2.8662074470091647e-01 1.9929051046867177e-01 -3.0949997752846736e-01  -1.2739781111025181e-01 4.2666186822403956e-01 -2.2551967695354527e-01  -2.1619728822385009e-01 3.2685355941712130e-01 -2.5772605047544822e-01  -3.7785725263005471e-02 5.0972751210017331e-01 -1.4561200129082977e-01  5.6234520956802078e-02 5.0806418632892025e-01 -1.8239837266629153e-01  3.7142077509470789e-01 8.8115513268591988e-02 -2.5102566171526630e-01  3.2569482641795394e-01 2.6829085850320455e-01 -2.4978443789488433e-01  -1.1609105652931956e-01 4.8169481527370211e-01 -1.0932679235432269e-01  -3.9857372792112516e-01 -2.5168166097539274e-01 -2.6955182910646158e-01  3.1500921206891463e-01 2.7423163914012433e-01 -2.3903820018166447e-02  1.4539697172576843e-01 -2.7227362482319006e-01 -4.4363576611428612e-01  8.4262111802280770e-02 -2.2838655398308425e-01 -4.9300617025547677e-01  3.3293249247520657e-01 2.1049334332690081e-01 -1.8162642760219450e-01  -3.0247664650674355e-01 -7.7832506734350840e-02 -4.6449170008031243e-01  -3.2321962864911002e-01 -5.4437314496428640e-03 -4.1751362642359557e-01  -3.4280882042538574e-01 -1.2554507852194627e-01 -4.2780549244362415e-01  3.8946262272285026e-01 -2.5688980142278574e-02 -2.0194621297324303e-01  2.0042780427521190e-01 4.2736582864097383e-01 -2.8696417832634102e-01  -3.0386467425531277e-01 -3.4734704441482572e-01 6.1898837166799951e-03  2.8847162388852921e-01 1.4172198502210806e-01 -4.1012825491859733e-01  2.9567677639752782e-01 -1.0021418681778355e-02 -4.2007720968454643e-01  -2.2349098325169486e-01 -1.9106276906299080e-01 -5.0820289357850246e-01  -1.2618162255322007e-01 -2.5850806771717538e-01 -5.0213725857008906e-01  -2.1533533976788768e-01 -2.7735093366291635e-01 -4.8472733253491868e-01  -3.2812172697411601e-01 -3.4819334760424753e-01 -1.7620983633993456e-01  -2.6075645900883759e-01 -4.1507644663185445e-01 -2.1376582805717712e-01  -1.4379693920828396e-01 -1.5528767723048623e-01 -5.3176120011906325e-01  -2.9641099568204804e-01 -1.9907078601160694e-01 -4.7314138367914726e-01  -1.7375612540462004e-01 -4.4315230847643294e-01 -2.6155168721847372e-01  -8.7821152599588892e-02 -1.0133208931439175e-01 -5.4134808409834689e-01  1.7182821598266765e-01 4.5982299584190817e-01 -1.8471107856633354e-01  3.3239583607786294e-01 2.4596892769347217e-01 -2.2123048886207916e-01  -6.5781370885272986e-02 4.8727106605424669e-01 -1.7330156547224246e-01  2.9148849430913504e-01 3.3825630032299375e-01 -2.3066433047946025e-01  2.1461906039423567e-01 -3.0346488434329189e-01 -3.5622196465274808e-01  2.0463298279801925e-01 -2.8219995456258640e-01 -3.9689169998042362e-01  -1.1688244980512037e-01 2.6601824947897268e-01 -4.9025620550925375e-01  -3.2243888944386745e-01 7.7364853725339425e-02 -3.6638185567729747e-01  1.7963427877670893e-01 2.2304422450900346e-01 -4.6857755753621533e-01  9.3544813972933613e-02 3.0046738505501058e-01 -4.7777874901649314e-01  2.4810844227584009e-01 -1.7602724655175450e-01 -4.2347935964194094e-01  3.6390756774397570e-01 1.5972781652545015e-01 -2.3272195710972046e-01  1.8289601702281946e-01 -1.6687976912992825e-01 -4.7605518222868665e-01  9.7606975785130126e-02 -1.1666083720573131e-01 -5.1855633708488613e-01  4.8084851333374853e-02 2.2870676703850587e-01 -5.1368769766998323e-01  1.1277128303200742e-01 1.6280455824500215e-01 -5.0564688772119926e-01  -5.5062090319477584e-02 3.4461921165216503e-01 -4.4515764749059716e-01  2.2968833232047470e-01 1.1168625340247508e-01 -4.6104458766253370e-01  -1.0840944790380252e-01 8.8706156428583038e-02 -5.3287473924847595e-01  2.5247078073382806e-01 -9.4148561689752622e-02 -4.4620724581178328e-01  -5.0973244773718708e-02 2.4330983445826723e-01 -5.1311584110893738e-01  -2.8546727750725898e-01 1.1688702014719379e-01 -4.0486033081796041e-01  -2.0507918794207915e-02 -1.9674019305880250e-01 -5.2003551312542451e-01  3.2300284187884293e-01 1.1418270012457407e-01 -3.7120927509590762e-01  -1.9782608497334828e-01 7.4378979443350660e-02 -1.3096916388473395e-01  -2.1576251418713188e-01 7.5342449573813808e-02 -8.4524909754004521e-02  -1.8946426787314158e-01 1.0149821708043846e-01 -1.2305548713100280e-01  -2.1340363886647112e-01 4.3216771689976827e-02 -1.1882891365103652e-01  -1.5345398591254950e-01 1.9062008102643682e-01 -1.1865614509477936e-01  -1.7650622217222223e-01 1.4246140120294798e-01 -1.1941857404125734e-01  -1.7792242582189907e-01 1.8747190913331899e-01 -7.1875589780695248e-02  1.7986962465075576e-01 9.7148454236995432e