<?xml version="1.0"?>
<VTKFile type="UnstructuredGrid"  version="0.1"  >
<UnstructuredGrid>
<Piece  NumberOfPoints="647" NumberOfCells="1944">
<Points>
<DataArray  type="Float64"  NumberOfComponents="3"  format="ascii">0.3175543261228033 2.046108592906235 -1.315968471967523e-15  0.428061660414457 2.647100353690854 -1.352767006636353e-15  -0.3314136258112623 1.977018663279388 -1.336073229911719e-15  -0.9118059392009342 1.671134465854734 -8.953627062930514e-16  -1.360522956141975 1.192716353713033 -8.864523763444627e-16  -1.611504545545152 0.5846143659432916 -4.419177869243272e-16  -1.701170938674517 -0.06109760959885024 -4.418907137409423e-16  -1.555224566751093 -0.682779202274779 -4.402567375316445e-16  -1.190006273411788 -1.205958524464416 -4.423465909377339e-16  -0.6634885837840667 -1.577916386174122 -4.240869386678771e-16  -0.03930215150115254 -1.750595008127899 -4.304257129050402e-16  0.6087388910605311 -1.682393285706272 -4.389078094737399e-16  1.206711701819628 -1.426351224016758 -4.36603292084775e-16  1.683551356432263 -0.9894058397956931 -4.389606957049881e-16  1.953234407794282 -0.4046675184324385 -4.429343110209228e-16  1.984126174950632 0.2374955862744761 -4.325848337396031e-16  1.821343757554505 0.8647073363116996 -8.927649883726571e-16  1.445450682547065 1.394816251323752 -8.829830537281601e-16  0.9224208584719875 1.800253138192623 -8.823781808510643e-16  -0.2735491529900849 2.752069915691025 -1.311680865147699e-15  -0.977357187745425 2.609888674465188 -1.290224299918048e-15  -1.605297217153827 2.261176348075921 -1.30623083589578e-15  -2.115503885375873 1.750049791854812 -8.801868151705569e-16  -2.46665108615656 1.127614381461552 -8.755730971822655e-16  -2.666309352288429 0.4412682561796235 -4.487511444066646e-16  -2.707111361907424 -0.2713655711054166 -4.365736211172248e-16  -2.559177077074203 -0.970943630005244 -4.458464751836529e-16  -2.248690134754604 -1.61476297884469 -4.191345046127511e-16  -1.802815557717975 -2.174057970421884 2.815035475673513e-17  -1.209870109303978 -2.587268676885086 3.284451981417715e-17  -0.5360310643983339 -2.837829674783676 -4.029173833894843e-17  0.1832743963497478 -2.903305868479463 8.154540593401458e-18  0.897541570217124 -2.80741052316526 2.988878767676293e-17  1.574381986516868 -2.552238980173644 9.367716064207889e-18  2.164464954564018 -2.130988915597333 0  2.637379316026814 -1.583559114135728 -4.255842784022383e-16  2.972769246651616 -0.9417890303601644 -4.284492529372535e-16  3.140563810328757 -0.230554321600933 -4.470433835022012e-16  3.080134863994803 0.4969267231613782 -3.949989896295605e-16  2.787554265625585 1.163425571203586 -8.802443992603591e-16  2.315225567561422 1.711045450274856 -8.599227445299006e-16  1.730779079543357 2.121718149748418 -1.334979310244884e-15  1.092491660458948 2.42109560075213 -1.309152637186509e-15  -1.186344655833016 1.295245147028513 -6.143784158989895  -1.290942893881431 1.733757654472824 -5.597403459088114  -0.8580950075998626 1.877596934431882 -6.026507238641926  -1.912153536246985 -0.5248436659659717 -0.5478668580420545  -1.985038801195076 0.09863532842504866 -0.6882481012325115  2.312272262112512 0.053122413735002 -0.7989565158459307  2.193616354094907 0.682735383408041 -0.8654645330234245  2.167455637811047 -0.4440688386629133 -0.5457722384067508  2.356448864991352 -0.3449058769478446 -1.120405060601433  2.15230415408234 -0.9056583279249564 -1.096008094880717  -1.252093502060082 1.46697513602367 -0.5371046127832129  1.624655544072952 -1.495394841198685 -2.841035002669955  1.743258859598101 -1.549280966428106 -2.182867910408837  1.215655887987486 -2.019658240659781 -2.314600573526345  -2.338514563307641 0.4616848597916365 -2.149281814763594  -2.293091323311494 0.1653420163479581 -1.54010823390107  -2.098089869821338 0.7605670993896541 -1.698940332999097  1.510870727745213 -1.799481405503313 -1.570276704528415  -1.912588073240591 0.616221219190634 -0.9465154723151541  0.7758104098993411 1.963501890330369 -1.09681328483089  0.75830694280291 2.011879290975733 -0.5354939479353871  1.163412956395147 1.808257167949733 -0.6563319128731286  2.017747442097135 -1.232457390514559 -1.753225464167731  0.5871317555281074 -2.104867567994654 -1.140119926047802  -0.008036462006240024 -2.195483575139246 -1.185016815581531  0.2981709034855787 -2.285412255355584 -1.664424151232254  -0.2659919309004057 2.253971038390489 -5.785130867204166  0.4832744256316538 2.266521098260756 -5.781837069124499  0.2298499013703264 1.958687789946788 -6.531159340291058  -1.578086411812148 -1.667145240348638 -2.541250283245676  -1.461612324612893 -1.796638353788403 -1.936747594681506  -1.820889531280386 -1.465817991230411 -1.911720775213301  -1.067586602295711 -2.03905499730929 -2.451749613416255  -1.593969250967409 1.316203861330776 -5.451365419908547  -1.2576949022062 1.517940427230962 -1.184206355740703  -1.693159506079963 1.307934131277948 -1.87520963822432  -1.688525689979803 1.109410839040816 -1.23355718033201  -2.224049579161916 0.879361201964997 -4.025280936068858  -2.140034129694608 1.349220819459965 -3.763222180843226  -1.947296500617492 1.326386243951936 -4.542960105516914  -2.326434606204416 -0.5034577648880614 -1.916676758004553  -2.198405230070898 -0.3643831638618543 -1.138793546360332  -2.401311088433435 -0.002518429744593431 -2.347220759467325  1.841657780609566 -1.095174879648031 -0.493554917180461  -1.655750642317849 -1.149771200004669 -0.6045819081970792  -1.096307070674161 -1.707083139037192 -0.6760242893717902  -1.66763884107139 -1.530286577709851 -1.30673820836214  -1.982377902224237 -0.9838411789203427 -1.030893881511766  2.024694678195507 -0.9696028683557986 -2.433365491360352  2.272907719154114 -0.6416009671224597 -1.741369682185885  -1.204989175535153 2.039419304131552 -3.143835429862283  -1.539039341733928 1.70199564100627 -2.56244506009227  -0.8979757261633718 1.866571482781342 -2.335852722129231  0.700898611083814 -1.617498572652998 -4.928059662869192  0.4284166824385063 -1.957171364572028 -4.236426670945384  -0.02681459126488438 -1.773664448061606 -4.711678064011428  -1.148955761715698 1.643624155082779 -1.855074092296093  1.820911128609934 1.437045836856734 -4.572528923363948  2.132463656961471 0.864574389845108 -4.414106220868763  2.206784457960272 1.013215528824635 -5.071952092073179  -2.292073033673882 -0.4660990079655544 -2.7646911262077  -2.042701349926273 -1.114384619568094 -2.451915449786059  -2.101672416405254 -1.039240325526016 -1.618122960242612  -1.221547307527315 -1.847638943543696 -3.251859269394919  -1.723361845807344 -1.389086610699942 -3.155099044081988  -0.3297642735906594 -2.228576993121952 -3.447989491322931  -0.4126435108907486 -1.973416324910611 -4.115066559806038  0.2548255748989923 -2.192083778691706 -3.630840418959164  -0.1006736129106058 2.050425108787882 -3.005825649683598  0.3823254678936206 2.037778451245509 -3.587769083857383  -0.2241242965017577 2.251112462612972 -3.717138453098517  1.904862871101497 1.047055037548903 -3.948653209831425  -0.184181772307325 2.071185289961085 -0.781225155552141  0.02651843224223291 1.986637645394245 -1.388667782115794  -0.6387184671922321 1.819582721829001 -1.534286138642495  -0.1814478712607446 1.877647856846151 -2.15365364109798  -0.3166443871241881 -2.243732396476663 -1.668950401946986  0.05849554492186795 -2.369807001153344 -2.376945309200535  0.9594560690253541 -2.145615113941272 -1.659454483095428  0.6831380166165012 -2.272884183207811 -2.211632311327337  1.038890885439398 1.757751179166686 -3.755106553701749  0.8716316854371554 1.660956343295113 -2.985148193515915  -2.1357449090924 1.079279195156423 -2.451955771072647  1.790272035522924 1.260578793786194 -1.470416962278945  1.321191127667406 1.421946374206592 -2.281141524044933  1.134024075095678 1.713551102866757 -1.524470653122698  2.205360596059872 0.6269123675483707 -1.689517009906313  1.853847172400084 0.9033834607400584 -2.315787809191797  2.110046490254946 0.3246868900975551 -2.463021051948139  1.433661815650515 -1.52048882506377 -3.639651158441692  1.806010014096674 -1.001805376101772 -3.32685158102947  2.026581262078235 -0.2962078487953995 -3.136691329875281  2.224679069463889 -0.2709987636286529 -2.23415059601315  2.3539848532702 0.0873190500228633 -1.586061766821821  0.8097171771024677 1.693659455889469 -2.290730238733326  -2.403734705845221 0.5113098085132918 -2.708154822472834  -2.359533546798991 0.8133596753575048 -3.276611564516936  -2.361162921948876 0.08929762037666605 -3.130085801336787  -1.014000382095989 -2.027713193354207 -1.58983712821917  -1.575345944742911 1.072123608732438 -0.6241258944342354  0.1809347938524402 -1.985514467286169 -0.637871178260488  0.8575983570268614 -1.822157475436069 -0.5806255052627827  1.829703322055804 -1.376806366967502 -1.123826750407668  1.540635046257014 1.547630244503001 -0.8870505087695444  -0.3780554918858318 -1.957838850902828 -0.6141693677015393  0.2370899831586774 0.7086081377776494 -7.183221230732446  -0.3070931913894412 1.178065925532599 -6.911426504450304  0.3012251617630355 1.392397032867353 -7.099144119466807  0.2553669489110278 2.275572711345561 -4.347681619864827  1.826518488960592 0.7802559756728601 -3.224406940765677  1.107926201069823 -1.93116534923952 -1.175726458493915  1.401450618635877 -1.621700652152623 -0.7788022484418153  -0.7644217469462572 1.857909906384124 -0.6847029338938692  -0.6039282487028419 -2.083014942926208 -1.122054027025027  -1.313042332773251 -1.193787881208984 -4.442442866228564  -1.783168739606429 -0.6613082364417551 -4.243094067152178  -1.518827449732506 -0.535626622049283 -4.889858878835518  -2.082514343368004 1.392448352244684 -3.041400225162311  0.3616498322102648 2.101314884588558 -0.9617712753589134  0.5013393101145174 1.882531038918891 -1.743061728613866  -1.776586584557624 -1.009687952571351 -3.783503258553075  -2.041783397721336 0.5286399754766458 -4.564168973665449  -1.789810430548236 0.7288240534050763 -5.190356800410814  -2.25364339973367 0.2911827825581433 -3.812165696859467  1.189919553059992 1.51695678435929
[...]
<PointData  Vectors="f_3817938-0"> 
<DataArray  type="Float64"  Name="f_3817938-0"  NumberOfComponents="3" format="ascii">9.7140201417510785e-02 3.8966271977349326e-01 0.0000000000000000e+00  4.8228785758436053e-02 2.9982970042681467e-01 0.0000000000000000e+00  -3.8331462116192747e-02 3.9480307664490516e-01 0.0000000000000000e+00  -1.6621444319842521e-01 3.5660844747887760e-01 0.0000000000000000e+00  -2.7298452894044728e-01 2.7477539006852747e-01 0.0000000000000000e+00  -3.5320343907423840e-01 1.6264511320228328e-01 0.0000000000000000e+00  -3.8718463637806871e-01 2.4181353476958850e-02 0.0000000000000000e+00  -3.8258678222073206e-01 -1.3011665835273334e-01 0.0000000000000000e+00  -3.3553902018927412e-01 -2.7970305590807781e-01 0.0000000000000000e+00  -2.4222294777252001e-01 -3.9768368674328536e-01 0.0000000000000000e+00  -1.1423807803815601e-01 -4.6461983882554436e-01 0.0000000000000000e+00  2.5669812433277876e-02 -4.7455767560712980e-01 0.0000000000000000e+00  1.5334728334139236e-01 -4.2325892451074382e-01 0.0000000000000000e+00  2.5297729791169893e-01 -3.2007861823776734e-01 0.0000000000000000e+00  3.2304884579001603e-01 -1.8712346705514027e-01 0.0000000000000000e+00  3.5976077131570472e-01 -3.7115695514581562e-02 0.0000000000000000e+00  3.5727077544472369e-01 1.1284834408774271e-01 0.0000000000000000e+00  3.1018539277612317e-01 2.4886011635313610e-01 0.0000000000000000e+00  2.2398024815709330e-01 3.4472564979188525e-01 0.0000000000000000e+00  -3.8140598603214497e-02 2.7786180590827636e-01 0.0000000000000000e+00  -1.0343931771057288e-01 2.4357799066816876e-01 0.0000000000000000e+00  -1.5822850178766062e-01 2.0079986142090786e-01 0.0000000000000000e+00  -1.9580400305628962e-01 1.5108758465862887e-01 0.0000000000000000e+00  -2.3391057234276047e-01 9.2401701232371625e-02 0.0000000000000000e+00  -2.5692885421708234e-01 2.7296131369390131e-02 0.0000000000000000e+00  -2.5881408325637228e-01 -3.9784534349736139e-02 0.0000000000000000e+00  -2.4838280107885094e-01 -1.0467333051669968e-01 0.0000000000000000e+00  -2.3140865585685391e-01 -1.7154030177233359e-01 0.0000000000000000e+00  -1.9083893140895408e-01 -2.3025276389154653e-01 0.0000000000000000e+00  -1.4592242244350670e-01 -2.7473862772651747e-01 0.0000000000000000e+00  -8.5778122240267568e-02 -3.0171892411935697e-01 0.0000000000000000e+00  -2.3843129587750759e-02 -3.1452205457036236e-01 0.0000000000000000e+00  3.9824930956828888e-02 -3.0103673101834433e-01 0.0000000000000000e+00  9.4475567461053553e-02 -2.6978614715854138e-01 0.0000000000000000e+00  1.3608960556922678e-01 -2.2217771732144873e-01 0.0000000000000000e+00  1.6642808765805461e-01 -1.6798880335067110e-01 0.0000000000000000e+00  1.8465830420387558e-01 -1.1116565010816697e-01 0.0000000000000000e+00  1.9355618145827652e-01 -6.2250984975542857e-02 0.0000000000000000e+00  2.0627353613001365e-01 -1.4888322445492711e-02 0.0000000000000000e+00  2.2401703240542703e-01 4.7846022277209348e-02 0.0000000000000000e+00  2.2838105823307511e-01 1.2919383262055717e-01 0.0000000000000000e+00  2.0222923460284534e-01 2.1645487202377292e-01 0.0000000000000000e+00  1.3822944569569345e-01 2.8163702605773139e-01 0.0000000000000000e+00  -2.1818244937042355e-01 5.5374521462465395e-02 -4.0725460732948077e-01  -2.0805414201928685e-01 1.4208745330344322e-01 -3.4183717809852238e-01  -1.5787313010120554e-01 1.7247868812152869e-01 -3.6262721180520141e-01  -3.8219143952347662e-01 -9.4161620509682506e-02 8.4821165171199610e-03  -3.7674339655879607e-01 3.8967650437845433e-02 3.4081274485446645e-03  3.4154254164258280e-01 -3.9298805200467656e-02 -2.2469838759616848e-02  3.3949577986061619e-01 8.3751694981037669e-02 -3.1821098574196897e-02  3.2896167460019321e-01 -1.5402987747400618e-01 -4.5695124283506600e-04  3.2780492659822430e-01 -1.0392195964535665e-01 -4.8232012779123132e-02  3.0312343928171287e-01 -2.1374568743127709e-01 -4.2409563979637396e-02  -2.4086710476651232e-01 3.0168846396162829e-01 -9.5957786646731595e-03  2.7887590843946941e-01 -2.6660167680387170e-01 -1.9070484722054881e-01  2.6390225095218039e-01 -2.8451465428380984e-01 -1.3873919640181401e-01  1.7410430335908533e-01 -3.5459870198251103e-01 -1.4937866355706231e-01  -3.4478096027888777e-01 5.7191025158194193e-02 -1.0904748886591796e-01  -3.5523954314439216e-01 3.1704960450181188e-02 -6.0936622406043285e-02  -3.2204823357247642e-01 1.4325592361479325e-01 -6.3387141179904016e-02  2.0249543587651386e-01 -3.4909948227039017e-01 -7.9735207744428424e-02  -3.4601313403867923e-01 1.4097132215063030e-01 -1.2333878807691370e-02  1.5307356074899456e-01 3.7532859050416906e-01 -5.8111583347601789e-02  1.5855458315788110e-01 3.6877733144438346e-01 -1.9195094991052233e-02  2.2678566201126363e-01 3.3072126169733812e-01 -2.6230877553198684e-02  2.9083341767165355e-01 -2.4181935459971651e-01 -9.9698034669390923e-02  4.5263301181744806e-02 -4.4777057620469962e-01 -3.3645448758576169e-02  -5.9005176150129873e-02 -4.5165907448388121e-01 -3.8261392548222688e-02  -5.4555133966319744e-04 -4.3535244208800750e-01 -8.2534537650630277e-02  -6.6985165323353191e-02 2.8193174479911992e-01 -3.2292728985606101e-01  3.8452830051801744e-02 3.3445480985971365e-01 -3.0763709748055534e-01  -3.8569817968417033e-02 2.3653801045427850e-01 -3.8160229972993548e-01  -2.9205660965077995e-01 -3.2731685936233035e-01 -1.7598614672922611e-01  -2.7212616498970038e-01 -3.4209067213837224e-01 -1.1339471000782039e-01  -3.2042389431666607e-01 -2.7962745201116807e-01 -1.1266200555414696e-01  -2.1364419723051170e-01 -3.8258455301514688e-01 -1.6272253526784716e-01  -2.6072993958810753e-01 6.6912077084875232e-02 -3.5581045436023767e-01  -2.1580979635495159e-01 3.1264152948473073e-01 -3.3862878322226696e-02  -2.5398055457438484e-01 2.5348157522649634e-01 -6.2210268619938495e-02  -2.9050680719419814e-01 2.3157716652572383e-01 -2.9147710609372282e-02  -3.3028098492527908e-01 2.6317678965696048e-02 -2.6824222122300934e-01  -2.8392994861417076e-01 1.1886858062224874e-01 -2.2389609546137709e-01  -2.8578279969923492e-01 8.8701571741021862e-02 -2.9258370753529628e-01  -3.6896265791003741e-01 -1.0670102889631293e-01 -1.0677249356375811e-01  -3.7041362095873248e-01 -5.7753631692723593e-02 -3.1547142011140200e-02  -3.6935096523762195e-01 -3.8735299301224595e-02 -1.3883238107445728e-01  2.6938009636020932e-01 -2.9209317599606693e-01 -4.3149969450020014e-04  -3.4912289314716366e-01 -2.3491955764907965e-01 6.6770393365280347e-03  -2.6257619977396768e-01 -3.7005340730415870e-01 -3.8247525606839312e-04  -3.0863804239650133e-01 -2.9213593227170692e-01 -5.0034815627663862e-02  -3.5660266732242368e-01 -1.8099503411726336e-01 -2.4622054159826823e-02  3.3077707714649601e-01 -1.7923510360840583e-01 -1.5676362269833774e-01  3.3101921874549622e-01 -1.3756817013049499e-01 -1.0114344516681673e-01  -1.2905630285709305e-01 3.2757112259881971e-01 -1.3092315220260964e-01  -1.9616496133182409e-01 2.8736309613049243e-01 -9.9763955604684443e-02  -1.0140612329137338e-01 3.7165683223304863e-01 -7.8324452186673749e-02  9.9341052446297304e-02 -2.8916016499250297e-01 -3.4405640652749270e-01  6.2920122867710870e-02 -3.3176337282429030e-01 -3.0668280194607622e-01  -2.3734878148219691e-02 -3.3097965056957923e-01 -3.5449570440699174e-01  -1.6901983673952570e-01 3.3986036521576912e-01 -5.9529592228339437e-02  2.9729393639791579e-01 2.7025096160911621e-01 -1.8413605535962860e-01  3.3427170277117996e-01 1.4678570454350032e-01 -1.8563656271014820e-01  3.1015903519175270e-01 1.6716746575615299e-01 -2.2149648475344208e-01  -3.8373388189490903e-01 -1.3975769822894230e-01 -1.9026678030325889e-01  -3.5499774399202577e-01 -2.3514398018537705e-01 -1.6739645453514973e-01  -3.5271399767476885e-01 -1.9317230031592811e-01 -8.1767144081538790e-02  -2.3791494363246557e-01 -3.5504962822783170e-01 -2.4325050855731573e-01  -3.2262028144700433e-01 -2.9856370831255624e-01 -2.3953394864933428e-01  -7.2932891664099997e-02 -3.7735910545375467e-01 -2.5180521330492400e-01  -8.6601982381399989e-02 -3.5766811315563840e-01 -3.1500576924123358e-01  3.3294004966696468e-02 -3.6097756088558308e-01 -2.6379456824593067e-01  4.9880041684847561e-02 4.2307028601905017e-01 -1.0710110032593946e-01  1.3312731804106961e-01 4.2527536786626025e-01 -1.3072462826528916e-01  2.5791120208642847e-02 4.0777486466071733e-01 -1.4977625790720278e-01  3.2958338568086970e-01 2.0607525192839068e-01 -1.5713582778318774e-01  -2.4068046883144917e-02 3.9318254088820748e-01 -3.2066731284438960e-02  1.8358031954377286e-02 4.0649093698211664e-01 -6.6250633341639567e-02  -9.6006689608166856e-02 3.8503759926539965e-01 -5.7755562902599977e-02  1.0939772632658390e-02 4.1788761611703168e-01 -8.3338913906747178e-02  -1.0429485376158823e-01 -4.3464637960059432e-01 -8.2706552175790884e-02  -2.7267256189007247e-02 -4.1106930413576270e-01 -1.5112933739644860e-01  1.0955699348711757e-01 -4.0302141903218092e-01 -8.5753621085553441e-02  7.5215087069211900e-02 -3.9909990915696902e-01 -1.3724667910061578e-01  2.3212291755600478e-01 3.8504337561674573e-01 -1.3700597803143841e-01  2.1675988646713512e-01 3.8894408804825809e-01 -1.1873809037335614e-01  -2.9651807811411057e-01 1.5642715832988940e-01 -1.1551613792075859e-01  3.0046154250236579e-01 2.3427097732231597e-01 -8.2193690154128432e-02  2.6249496418071522e-01 3.2359308859038305e-01 -1.1833579872918766e-01  2.1739744171921691e-01 3.4906993003931980e-01 -8.4434856397613098e-02  3.3614771904657686e-01 1.0312540799294381e-01 -9.5380172066218141e-02  3.2887429874124519e-01 1.9742519978347650e-01 -1.3045281317007235e-01  3.5608279253939090e-01 6.9670927200466123e-02 -1.4290271635595359e-01  2.5612425352501622e-01 -2.6339800169815852e-01 -2.4068387881206729e-01  3.3298451611964963e-01 -1.8079185376770199e-01 -2.0689743257654711e-01  3.6745018559111658e-01 -5.2159516113923353e-02 -1.7930099940472063e-01  3.5455647867138645e-01 -5.2631591368717139e-02 -1.3882961965295204e-01  3.4478383502978127e-01 -7.1179445200667034e-03 -8.7937719784174875e-02  1.8676729570126102e-01 3.9127182662843968e-01 -1.0785141055262475e-01  -3.4600849118709970e-01 3.2514290698377052e-02 -1.5797381796721477e-01  -3.3178799500120587e-01 5.0606837333985237e-02 -2.0033740047747900e-01  -3.7922745638052258e-01 -6.5718719612324977e-02 -2.1312651696845761e-01  -2.1314246348733282e-01 -3.9293280943139802e-01 -7.7138998069553613e-02  -3.0513041294809068e-01 2.2979033229560739e-01 -6.3585913719658030e-03  -3.4216537854046748e-02 -4.7245471545113177e-01 1.3025208649336509e-03  9.2841373802545618e-02 -4.5116374957150152e-01 -3.4749436239088827e-05  2.5577696909079717e-01 -3.0423182604913085e-01 -4.1235346036002291e-02  2.7488186125840186e-01 2.7647505712998777e-01 -3.9299943609680234e-02  -1.4169886050569355e-01 -4.4918610205185061e-01 5.8588602777472597e-04  -7.1503953501909939e-02 -1.0992776350732863e-03 -4.9730585563967045e-01  -1.2916085219023488e-01 5.8056318519722878e-02 -4.6325062266988110e-01  -7.1656043637476033e-02 1.2524856009177487e-01 -4.3448330286588061e-01  8.2363625476232785e-02 4.1183919896744137e-01 -1.8475205462801500e-01  3.4337635053450999e-01 1.7877772873113418e-01 -1.4695307454214204e-01  1.3597960855106911e-01 -4.1088916952020904e-01 -3.9628823115523119e-02  1.9143665712390140e-01 -3.8541436466472706e-01 -1.2691504882335716e-02  -1.3751429037035320e-01 3.6449859490277237e-01 -2.3502562996441382e-02  -1.6263698817189026e-01 -4.2927351926414647e-01 -3.3312712773565498e-02  -2.7744980366342942e-01 -3.0158455244500881e-01 -3.6463271704552092e-01  -3.5648706190322232e-01 -2.2976069485812081e-01 -3.4533423212093350e-01  -3.2309397129612055e-01 -2.2805446945240460e-01 -4.0057814421260740e-01  -2.6916891495592404e-01 1.6930691735933118e-01 -1.5662706316164365e-01  7.5669650879628972e-02 3.8988327726108574e-01 -4.5364533830803556e-02  1.1240621182665822e-01 4.0428629563408847e-01 -8.7434946798859284e-02  -3.4790770497860501e-01 -2.6344963746210998e-01 -3.0311969141863609e-01  -3.5121441101996825e-01 -5.0589540081053840e-02 -3.3457719658402318e-01  -3.1640750368739518e-01 -3.0590429959073309e-02 -3.7298301299521558e-01  -3.7528035556051831e-01 -6.5149771817148497e-02 -2.7445599940340254e-01  2.6601538899915816e-01 3.5477531215015312e-01 -1.2673275263843145e-01  2.9888262341610689e-01 2.9744339932110692e-01 -1.3158048725328622e-01  2.9772587924176791e-01 2.9972085328614850e-01 -1.4196243498401459e-01  3.2220294633533225e-01 1.9398311330771176e-01 -1.7355549945762216e-02  3.5206286891374716e-01 1.0196380594130183e-01 -1.6924357600628626e-01  3.4267843554956740e-01 2.0084824611126650e-02 -2.1137842909780813e-01  3.5901711112131424e-01 6.6975287156946423e-02 -1.6440745492765643e-01  -3.8999378920183708e-01 -1.5847888316064601e-01 -2.7555481202412796e-01  -9.6198061147219627e-02 3.3625365070837021e-01 -1.8729467074275438e-01  -4.4124636870439680e-02 3.8255370827644225e-01 -1.3414826564584831e-01  2.0135583169881294e-01 -3.2251956714987545e-01 -2.0898906674219406e-01  1.4856711954139820e-01 -3.3073952232661813e-01 -2.5378876400239153e-01  9.6106061422661926e-02 -3.7097438978738295e-01 -2.0032735941040963e-01  -3.7383461610209756e-01 -2.1940987561901332e-01 -2.4683787918963904e-01  1.2136079032715170e-01 4.2077264995748370e-01 -1.0306644286595031e-01  -2.0575135678851444e-01 -3.4539631099932322e-01 -3.1778562422037288e-01  -1.5990732377158048e-01 -3.6731482183994552e-01 -2.6882494169381160e-01  -2.8652461383852151e-01 -3.1861621918495386e-01 -2.9460453491333632e-01  -1.0769708800684617e-01 -4.0049194919584485e-01 -1.8589508357520648e-01  -9.3962375122511287e-03 -3.8962082020899907e-01 -2.1089247216848636e-01  2.0955295455230172e-01 2.1491310423009655e-01 -3.1276426630459658e-01  2.4485872994041943e-01 2.8886621422761383e-01 -2.4665454498784214e-01  2.6629583142443081e-01 1.8242992869538199e-01 -2.7330543441055222e-01  -1.6178316273325011e-01 -3.8210509758387834e-01 -2.2139705515100863e-01  -1.8991793175422499e-02 3.7432943295192939e-01 -2.0682933485762819e-01  -2.2640514995447400e-01 -6.3205382709020111e-02 -4.6633422729526897e-01  -2.7398492169480809e-01 -2.1936759709286085e-02 -4.1469076171038238e-01  -2.2836039878565192e-01 -2.8127059613074690e-01 -4.2547635092324099e-01  1.5960586161678669e-01 1.4243157142800178e-01 -3.5896813753731971e-01  1.4148207732237789e-01 2.2598181228656422e-01 -3.4977287317105432e-01  3.0187604753745539e-01 6.9598520171930661e-02 -2.6045299195863975e-01  -1.4029338203953942e-01 -4.1620468556984147e-01 -1.2763145523958949e-01  3.6062895019483798e-01 9.1392218090298339e-03 -1.8253315399821060e-01  -3.7379238788650659e-01 -1.5163303984296275e-01 -3.4511421887270904e-01  -3.3785744626705344e-01 -1.3840010204704606e-01 -3.9978656005863061e-01  -1.4469602681615223e-01 -4.6749834257350686e-02 -4.9908883955055833e-01  -1.0126305096250256e-01 1.5285180256416547e-01 -4.1744476489212828e-01  -2.1501919322273805e-01 2.3209710024157804e-01 -1.6543644349101941e-01  1.8263450817178928e-01 -2.7594394434316460e-01 -2.9642225983304465e-01  -1.6346763202920381e-01 -3.3250939087653791e-01 -3.7063502007148308e-01  -1.5514650543095365e-01 1.0893286553602262e-01 -4.1552751164722340e-01  1.8255718779854605e-02 -6.9644839608810558e-02 -4.8068143187346701e-01  -7.2109431544135114e-02 -1.1437119459065512e-01 -5.0823338419208619e-01  2.2474170192072990e-01 3.5994949167570700e-01 -1.9949386256901297e-01  1.8856176067094648e-02 -1.7898623792037160e-01 -4.6453859893468186e-01  -8.1557362425779573e-02 -2.0195168288896734e-01 -4.8546710352002159e-01  -4.1460447711503146e-02 3.9565151151220773e-01 -9.6520738022044916e-02  -1.9378949885891547e-01 2.2932139080872938e-01 -2.4379200898423053e-01  -2.1379322597579514e-01 1.8020431901748016e-01 -2.9480764209275645e-01  -2.3216230089001186e-01 1.8487610680729044e-01 -2.2745813706047749e-01  -1.6561425099700655e-01 2.7313047951187935e-01 -1.8715368448769307e-01  2.9114818588284319e-01 -1.9335256767319653e-01 -2.5484511640185542e-01  3.5098005294497497e-01 -9.3837644760285610e-02 -2.0910389060237669e-01  3.2454795498729383e-01 -9.5223064360291002e-02 -2.3990314559943970e-01  2.6833670761338235e-01 -1.4677465110493429e-01 -2.8670551588160931e-01  -1.8903360911353387e-01 -2.2776568823943227e-01 -4.7299332758751961e-01  -1.1612636886182427e-01 -2.7328462240308049e-01 -4.4998018583885130e-01  1.5049322415210559e-02 3.6859287389029866e-01 -2.4973621363300152e-01  2.4126061094834075e-01 1.1349351600459495e-01 -3.1249828962694104e-01  2.0175052005425420e-01 5.9127042407547549e-02 -3.4875826864611981e-01  3.7755965213404102e-02 -2.7869061696363728e-01 -3.9347094448012315e-01  1.1968111902277728e-01 -1.7388147097351750e-01 -4.0291759100700442e-01  6.0725674667785896e-02 -2.2816155364273122e-01 -4.1805190903776923e-01  1.2557390102580510e-01 -2.3124331535476905e-01 -3.7281811463586356e-01  -4.9822375995257649e-02 -2.9746362197517123e-01 -4.1315013714996640e-01  1.1277344359701734e-01 -9.0733116759685456e-02 -4.2763805935185761e-01  2.0335562155976428e-01 -2.2262387662007657e-01 -3.1877571239658997e-01  1.9316710730377162e-01 -1.6880313962068078e-01 -3.4536210005229290e-01  3.0030318454948129e-01 -4.7799201185991493e-02 -2.6697852255497401e-01  1.9348983617330465e-01 -3.3479414168525595e-02 -3.6306961921188030e-01  2.4786605731778621e-01 -8.5187488506118181e-02 -3.1582888768184642e-01  1.7373713260266119e-01 -1.1403084073229142e-01 -3.7412288052372744e-01  -1.2747028780748018e-01 2.9452696861648686e-01 -2.4145332381124407e-01  -2.8029448869014806e-01 -2.1300285517216147e-01 -4.4316968597483003e-01  -2.3754995272374385e-01 -1.5824924334654461e-01 -4.7515304668421965e-01  -1.4809824082545545e-01 2.3789074216606143e-01 -3.0539106928426168e-01  -2.9265540642003735e-01 -1.1061865176959337e-01 -4.3856435352444517e-01  -2.1353260393759683e-02 -2.5295737819524666e-01 -4.4346632191187979e-01  1.2231642071326104e-01 3.8992229471183654e-01 -2.3214933580788671e-01  2.6215627631988375e-01 6.7077950410661070e-03 -3.0622942423789384e-01  -1.2033962398713831e-01 -3.1057516752231212e-01 -4.0766456989875899e-01  -8.1746149342446131e-02 3.1124540349693908e-01 -2.6967497323618672e-01  1.7565650815197831e-01 4.0757981818867250e-01 -1.6870157156385243e-01  1.3390675815174216e-01 3.4035473551289658e-01 -2.9179390394047816e-01  2.4894507932288412e-01 3.5895546619382807e-01 -1.6407205608960754e-01  -1.6282803792853995e-01 -1.3971823137990028e-01 -4.9998898441246598e-01  7.5320383219002515e-02 1.8591696870127797e-01 -3.8515699111457952e-01  1.8830968588218996e-01 3.5541800117624078e-01 -2.4169974484838019e-01  9.7444807980284695e-02 2.7074370600971187e-01 -3.5081295804189550e-01  -1.0592056292123961e-01 1.9965790812462172e-01 -3.8271058461201607e-01  -1.8272999398995909e-01 1.1860168824397837e-02 -4.5603171093507860e-01  1.3183731543872789e-02 2.0923253465395900e-01 -3.9617717635338540e-01  4.7009034603046403e-02 2.9194086386746737e-01 -3.5131943948166849e-01  7.4908073117424950e-02 2.1362539089728273e-02 -4.2768671271479414e-01  1.4181833971783323e-01 4.4439994673361252e-02 -3.8472456805502508e-01  3.2492190025194415e-03 6.9374309288521580e-03 -4.6659567401289131e-01  -7.0486606708620439e-03 9.6711708851332456e-02 -4.2899776239914822e-01  1.7456925105996360e-01 2.8201053466141246e-01 -3.0759041758484973e-01  9.3743926532641297e-02 1.1082311982287149e-01 -3.8994052519831468e-01  -1.7686017590238690e-01 -2.1671397387942601e-01 -9.7409769872253318e-02  -1.7947664328501739e-01 -2.2495189943847149e-01 -5.4519723756927999e-02  -2.1197273120959717e-01 -1.6531171510897050e-01 -6.5161329705871865e-02  -2.1215738168208192e-01 -7.4879960976449210e-03 -9.7323336918581527e-02  -2.2727891392350233e-01 5.4140337441357933e-03 -5.9555786872999519e-02  -1.9705396756146421e-01 3.4383144874335428e-02 -1.0183215440782326e-01  -2.1235332113808503e-01 5.8676321931491554e-02 -6.9205701691645138e-02  8.3075835593410127e-02 2.3149119111853225e-01 -7.7316771301096876e-02  1.1334695961056799e-02 2.3951438643951081e-01 -7.8875820206880026e-02  7.4066042972166735e-02 2.5866570047412518e-01 -5.5525369884400405e-02  -7.4071529186204889e-03 -2.6303416949651853e-01 -