<?xml version="1.0"?>
<VTKFile type="UnstructuredGrid"  version="0.1"  >
<UnstructuredGrid>
<Piece  NumberOfPoints="612" NumberOfCells="1848">
<Points>
<DataArray  type="Float64"  NumberOfComponents="3"  format="ascii">0.2754896754585816 2.236549923499854 -1.779308200916553e-15  -1.095971052096626 -2.747104848482231 1.07307820092955e-17  -0.3353433779105778 2.180981484468639 -1.781882061644604e-15  -0.8952783598804327 1.90179946950586 -1.776548875707892e-15  -1.329083092028418 1.453560306873791 -1.305568902331566e-15  -1.608858083661797 0.8965178175685919 -1.331152092845822e-15  -1.701901262545475 0.2810250098885172 -8.68601431938375e-16  -1.671371027513754 -0.327829101304413 -9.138335907132845e-16  -1.438909773439503 -0.8722201409936001 -4.365648903311519e-16  -1.037794673425122 -1.310746384124437 -4.166768467720609e-16  -0.5198434328298551 -1.598625194234979 2.609792542804964e-17  0.07010103477684466 -1.681693434598961 3.632739973733706e-17  0.6536544172001502 -1.565966401468443 5.391403943423208e-18  1.166507429314188 -1.261786546820742 -4.392126182306518e-16  1.525180507190357 -0.7788678438594996 -4.272046245395402e-16  1.705146450522463 -0.2117489520850205 -8.835778402617084e-16  1.719971125578322 0.3894056676978508 -8.980705181750501e-16  1.578197920612806 0.971452218729557 -1.309361962384886e-15  1.253694555820145 1.487784152378657 -1.295369793946319e-15  0.8107076569228451 1.923628265121876 -1.73157856776388e-15  -0.396531320926329 -2.954946439342635 -4.399516575930547e-18  0.3329013813254834 -2.955463857617367 6.023549912026676e-17  1.03525216645403 -2.771231316810102 6.697251502849534e-17  1.671519427880931 -2.427703428502431 6.848955598467546e-17  2.216607548332268 -1.95261683441276 1.544941567249214e-17  2.651854696418682 -1.378240930610294 -4.3120143603832e-16  2.966744684320215 -0.7266304282390796 -5.440728092276211e-16  3.115982902253957 -0.008249377100677635 -8.844928743026587e-16  3.041903058484357 0.7235780598295963 -8.784252494490968e-16  2.768507342072161 1.402974133772142 -1.311713489235985e-15  2.335933658061523 1.983986405269858 -1.31108417876833e-15  1.788596837591346 2.458125776077853 -1.751203124367134e-15  1.178918923647227 2.824582695681032 -1.77088103016639e-15  0.5124129116802668 3.111570531868003 -1.769744313971654e-15  -0.2085128301982764 3.212708018700253 -1.750097248780816e-15  -0.9283010327958288 3.073019645409377 -1.76830038694077e-15  -1.572742475486907 2.728574229403138 -1.717577748702771e-15  -2.095600974723892 2.224133993119048 -1.724259111288287e-15  -2.473251201703177 1.605868195682889 -1.309330841323727e-15  -2.698454027696874 0.9211784729011235 -1.306899740067008e-15  -2.796513396405661 0.212276205477737 -8.459783292733575e-16  -2.737098635972364 -0.5002834844392523 -7.694345353933408e-16  -2.526465932551381 -1.188835472466363 -4.068921405162505e-16  -2.177804671854037 -1.812068552951902 -4.305250561493927e-16  -1.697617772493291 -2.345897472801901 -5.978253767251448e-17  1.071533456208993 1.723943386544185 -0.8137105056087534  0.6976761088577232 1.731874713388039 -1.512125421211505  0.5619990741515388 2.04197341810614 -0.6944247003786658  1.58240660247686 -0.8057671735402603 -3.072196630331082  1.419004401518578 -1.238756714790917 -2.758827454788325  1.324054062414105 -1.194955517016044 -3.313514623470498  1.709001629360993 1.039380094057092 -1.233173450413454  1.956741823917701 0.5196525529067235 -0.8505391676125855  1.893054085568221 0.5406313249808865 -1.570929922682442  1.646742864526183 -0.9491312510540639 -2.290161668161544  -0.760459025828098 -1.73387958175093 -3.009719558441661  -0.9853028324825741 -1.494028590805592 -3.507639799505803  -0.4427433512108498 -1.767428497751271 -3.527373632951344  0.9976396187584819 -1.437019287841473 -3.665979457779368  0.6814629710249519 -1.763115009990205 -3.300357545445294  0.5618877632593319 -1.602410986460829 -3.955521241342413  1.045572159652203 -1.606581681105582 -2.940928994309069  2.016669826997272 0.1253904848472343 -1.205953665347567  1.946215952829307 -0.006706518452618132 -0.6326981604947995  1.944204434748993 -0.3617039667293299 -1.169514628341202  1.509569029721405 1.346313499160368 -0.7200626447290907  -1.545365375541661 1.039636734592818 -4.43589465559404  -1.800799922892065 0.8224968784065079 -3.80664231622012  -1.628139996960287 1.272992203466637 -3.662041639106981  -0.8511680217873124 -1.746293571256647 -2.339420197220375  -0.2842500988884015 -1.939138514622598 -1.936354842234035  -0.7439336651212641 -1.808826263462017 -1.450373493680922  -1.831263672067033 0.8822559057696215 -3.135585470930371  1.769353335182352 0.3270806150445333 -5.484348436594409  1.767437938146047 0.7245281364217062 -5.074116043074511  1.70182051683815 0.1792673079462648 -4.815264192329044  1.476368914779879 -0.4211819480590392 -4.441682420865185  1.249976462829943 -0.9973555787404801 -4.010127499270557  1.207146320001081 -0.7697688114281438 -4.715767162984689  -1.678952680430288 -0.6227891265422498 -0.3543512327896914  -1.856811682239587 -0.2162258231182764 -0.6732954689136873  -1.51329116941603 1.089039906305383 -0.7720352750059816  -1.143103937721812 1.581538158766274 -0.6736716124900192  -1.252578439137122 1.297743744299701 -1.273945020624168  -0.02080280699761208 -1.896317202083746 -1.280577793902093  -0.5171720017568164 -1.799704957028029 -0.804806338179613  -1.003496956829574 -1.57238536401029 -0.6697549825558635  -0.7115920021746628 1.873680287932008 -0.7719123574163804  -0.9515540545886174 1.535020457616336 -1.299044089894541  1.509202623171965 -0.6153033022946708 -3.724967623610469  -1.113383792456391 -0.661433817118809 -4.526287671831721  -0.7001557047867359 -1.29062570256864 -4.233625028834037  -1.288870098249549 -1.05203563901984 -3.820721248134277  0.5329473304860872 1.543913800345115 -3.319976078196599  0.6182256949443766 1.525062292722153 -2.390909748066331  0.9890050825995944 1.304196625627846 -2.820039063639331  1.799952115361036 0.8270125580916079 -5.8859958705272  1.093677785437193 1.354862576185885 -2.087601926667216  1.732898614469684 -0.8286205602955755 -1.079930856677506  1.443586655452184 -1.159567157852286 -0.7266461609926819  1.546835035011455 -1.14833253729865 -1.561401096837427  1.760474411514497 0.4702969319161434 -2.39295096342605  1.538066625636382 0.9791199741535407 -2.050192103259553  -0.9485945284235036 1.510585443881687 -5.307178672556864  -0.6105850328232282 1.574404467581693 -5.760212341876436  -0.8890756813884306 1.167674562796172 -5.795881382448516  1.516226327161365 0.8286846115324089 -2.982928670573494  0.117116815678062 1.92522208939363 -1.279707199891138  1.153489312182178 1.277495656948071 -3.523393320465375  -1.467370285344627 -1.104819626767013 -0.5223456575697368  -1.374255397247862 -1.433995776357063 -1.198181835496336  -1.725338098233697 -0.88070409397557 -0.9508294898854002  -1.64735928816759 -1.147149434534247 -1.661208666493957  0.1630437886224175 1.666548508219809 -2.06157692858653  0.6858427793839958 -1.749185891517421 -1.197803633433519  0.9999422230302323 -1.510317841534293 -0.5688664447584593  0.4314836259802496 -1.759186622275347 -0.6824016408442283  1.294383538789785 1.406359583051666 -1.414770372432852  -0.3437631552945448 1.369934895389583 -6.314795339320584  1.819941755710683 -0.6570056836346752 -1.681248461717869  -1.303797399489489 0.03774193596211012 -4.880113818303495  -1.452671680096137 0.6515877374799083 -4.80631790123088  -1.108710383122877 0.5746196387766636 -5.502723966766844  1.158219042203634 -1.494731306390649 -1.344216846845258  -0.4747365380815073 1.670514766241538 -1.636499959189982  1.665531648678465 -0.2096101961115141 -3.438034370190057  1.750808649692734 -0.4029729384601287 -2.781036535965936  1.833554810289186 -0.05167714985162156 -2.533335240276667  1.826576781272135 -0.4341851104344092 -2.25100784844588  -1.766568839754354 0.4761958663680643 -0.6829584898644662  -1.920309206494673 -0.5491654515852602 -1.438815750402329  -1.503417854935758 0.9810313195833356 -1.594080536139614  -1.718428393450351 0.6640133710714454 -1.259727507410757  0.8018196215324103 -1.809027731531805 -1.933657932578828  0.4055311331717017 -1.287381716077441 -4.643936775885811  -0.04902268794220539 -1.614599025760404 -4.078685154375723  0.1713189424743811 -1.861388941531968 -3.42948035936829  1.292828694663908 -1.469353111448908 -2.224788566972101  -1.212519787215613 -1.563805307792304 -1.762649106459514  1.925492648496258 -0.05093174222862536 -1.861783568457793  1.206847917801102 1.46528412499369 -4.722776161535324  0.861611743827319 1.575681482878975 -4.033129077308968  1.394924891570581 1.226684266777121 -4.153795658863958  -1.443723412816311 -1.319542322443754 -2.423522923323211  -0.1096612667965703 -1.798799310006996 -0.5616327075823041  -1.694431152948917 0.9331875184120667 -2.425449034146798  -1.152609236379628 1.339202200904032 -2.041095342209911  -1.815939409610527 0.5334473119274781 -1.917193881422429  -1.810447209711471 -0.8011607324764105 -2.151082919047237  -1.244257203154959 1.071857149516572 -5.186517335325599  1.746653705975561 0.1960137520995926 -3.028664311580314  0.9193343039260571 -1.180214082375866 -4.420976065104644  -1.748853450088114 -0.7840163314279271 -2.838817371295717  -1.927937143615847 -0.4274324501985137 -2.458718991797567  -0.1844761324107093 1.688629714980372 -2.815093999301312  -0.6885993920889322 1.729183796612596 -3.051218249673617  -0.3888888568701277 1.638952301036148 -2.432703539431754  -1.930848550664284 -0.1688320489295171 -2.897009587738247  -1.974477919555889 0.0274189052760208 -2.233499605965587  -1.949125787784708 0.3901257588419316 -2.742563196689255  -0.1805990596405354 1.801648118163491 -3.534331758432063  -1.911915187823626 0.1195099570011739 -1.374716626462891  -1.953420188166923 -0.346495210624033 -1.945433501200818  -1.627371666117575 -0.7398252615770025 -3.506506652310708  -1.453858938797646 -1.140086452178062 -3.174234289483366  1.759099422870936 -0.6490501138919228 -0.5271105046709498  -0.2768316718678878 2.011581963923891 -0.8
[...]
<PointData  Vectors="f_3921816-0"> 
<DataArray  type="Float64"  Name="f_3921816-0"  NumberOfComponents="3" format="ascii">1.8544756873518459e-01 4.6707747371889352e-01 0.0000000000000000e+00  -1.8694481336300450e-01 -2.8864394651780462e-01 0.0000000000000000e+00  -2.1114981116985326e-03 5.1307608585677877e-01 0.0000000000000000e+00  -1.8614904311229652e-01 5.0362335449376849e-01 0.0000000000000000e+00  -3.5992487493421010e-01 4.3832515267139066e-01 0.0000000000000000e+00  -5.0050434744407968e-01 3.1777204099367812e-01 0.0000000000000000e+00  -5.9163361925711033e-01 1.5575074472785783e-01 0.0000000000000000e+00  -6.0964241805703656e-01 -3.4566305772166427e-02 0.0000000000000000e+00  -5.6704788645264581e-01 -2.3425265997691549e-01 0.0000000000000000e+00  -4.6740260683229712e-01 -4.1480837745526450e-01 0.0000000000000000e+00  -3.1527201245705272e-01 -5.5318605402249432e-01 0.0000000000000000e+00  -1.2634146361821769e-01 -6.3099818966756160e-01 0.0000000000000000e+00  7.6647709489998092e-02 -6.3835339737485097e-01 0.0000000000000000e+00  2.6649566770679228e-01 -5.7490546198234316e-01 0.0000000000000000e+00  4.2961124155347219e-01 -4.5099646333286642e-01 0.0000000000000000e+00  5.4085364938575242e-01 -2.7812353238555054e-01 0.0000000000000000e+00  5.9073174177143606e-01 -8.2640399455574609e-02 0.0000000000000000e+00  5.6793732528937835e-01 1.1328349314007911e-01 0.0000000000000000e+00  4.9222167760411789e-01 2.8668912858760959e-01 0.0000000000000000e+00  3.6226645917457467e-01 4.0969153721395624e-01 0.0000000000000000e+00  -1.2853413326707569e-01 -3.2120090451402583e-01 0.0000000000000000e+00  -5.8089441282704539e-02 -3.4387470674469872e-01 0.0000000000000000e+00  1.4557749379386968e-02 -3.5143167827809241e-01 0.0000000000000000e+00  9.0981048717134250e-02 -3.3736886920478398e-01 0.0000000000000000e+00  1.6213430051511574e-01 -3.0577353105226257e-01 0.0000000000000000e+00  2.1910736973887876e-01 -2.5099413512837471e-01 0.0000000000000000e+00  2.5615980296611068e-01 -1.7860672775098091e-01 0.0000000000000000e+00  2.7560083418513642e-01 -1.2018326832658442e-01 0.0000000000000000e+00  2.9084960378827696e-01 -5.7799590676934180e-02 0.0000000000000000e+00  3.0083485742460198e-01 1.6824179658178375e-02 0.0000000000000000e+00  2.8845790604367549e-01 1.0679551119075018e-01 0.0000000000000000e+00  2.5610399488116042e-01 1.8442552303424706e-01 0.0000000000000000e+00  1.8448303938761770e-01 2.5231067029233284e-01 0.0000000000000000e+00  1.0023662293957669e-01 2.7137454896955465e-01 0.0000000000000000e+00  1.9124426013017982e-02 2.8051452114150383e-01 0.0000000000000000e+00  -5.2443779163994821e-02 2.7706050192347081e-01 0.0000000000000000e+00  -1.2585755452487632e-01 2.6663616125889289e-01 0.0000000000000000e+00  -2.0067819919491597e-01 2.3321525691656136e-01 0.0000000000000000e+00  -2.6822126255182982e-01 1.8659773072609948e-01 0.0000000000000000e+00  -3.2308988343552658e-01 1.2114155344544782e-01 0.0000000000000000e+00  -3.5199329900559495e-01 4.1247074555974823e-02 0.0000000000000000e+00  -3.5623026789094175e-01 -4.4879527494440311e-02 0.0000000000000000e+00  -3.3823109992922756e-01 -1.1664084285018474e-01 0.0000000000000000e+00  -2.9886758326723972e-01 -1.8610234809698384e-01 0.0000000000000000e+00  -2.4645831758166975e-01 -2.4503034552970035e-01 0.0000000000000000e+00  3.6839818818346431e-01 3.9896282255262544e-01 -9.0040006919679158e-02  2.3235161769922810e-01 4.8490049016733650e-01 -1.6289678307410327e-01  2.2270929515348853e-01 4.7025064724419818e-01 -8.0540966261083813e-02  4.7777407569228669e-01 -2.4749218425807434e-01 -3.1549962310470919e-01  4.0312688588564766e-01 -3.7599946580930937e-01 -2.8522527603430908e-01  3.9510478507343205e-01 -3.4129306272724913e-01 -3.4962975184873585e-01  5.0106322912051293e-01 2.0214090951709862e-01 -1.2094679221600296e-01  5.4895876186984116e-01 5.6879845342823450e-03 -7.0228223555401051e-02  5.3394168269101738e-01 7.1548848734403175e-02 -1.5597655304940838e-01  4.6545316104152118e-01 -3.2617696884199160e-01 -2.2915654211718764e-01  -2.3243878818356201e-01 -5.3075084473708467e-01 -3.3603230518180238e-01  -2.7936249436774607e-01 -4.7777307859892393e-01 -4.0967734977502696e-01  -1.1970194259287979e-01 -5.1798195377406364e-01 -4.0477966719199349e-01  2.9837059565266089e-01 -3.9391882563898195e-01 -3.9635027237743159e-01  1.8812950297291900e-01 -4.7982976589191190e-01 -3.5792693793435920e-01  1.7506361182638680e-01 -4.3351323762952720e-01 -4.3839991534517225e-01  2.8793709722908534e-01 -4.5708996334423080e-01 -3.1133321109208728e-01  5.4428982650697544e-01 -8.8360342045728207e-02 -1.1017622449136558e-01  5.4952587898894412e-01 -1.6380720568902638e-01 -4.2012249466386702e-02  5.2194252940085584e-01 -2.3393596310654571e-01 -1.0396234133288176e-01  4.8162458153646975e-01 2.6520988147546232e-01 -6.6355830201693541e-02  -4.2370085186214229e-01 1.2024252721603983e-01 -4.5384365292548717e-01  -4.7184278803557483e-01 9.4029458326515575e-02 -3.9240367855631142e-01  -4.0540596419079300e-01 2.3474009778773330e-01 -3.5326433855357331e-01  -2.8447761609721667e-01 -5.4177768721282948e-01 -2.4696323758207447e-01  -1.3781080632347964e-01 -5.9774880237455241e-01 -1.9070206653493862e-01  -2.7834031349396710e-01 -5.5302384255617154e-01 -1.3266184908493314e-01  -4.8051084910452324e-01 1.6723342654544504e-01 -3.0377452058480076e-01  4.0039745759951101e-01 8.0730435760552249e-02 -4.7377063686082599e-01  4.0384167784697644e-01 1.9697729057130875e-01 -4.1735315797835393e-01  4.4600657301605762e-01 3.4301161455756284e-02 -4.2101655138407185e-01  4.4378316233735077e-01 -1.3857157997976946e-01 -4.2833079766651483e-01  3.8735115910304607e-01 -2.8611253369915618e-01 -4.2029240470534579e-01  3.5954666161499987e-01 -2.3268279747839593e-01 -4.8172058995221056e-01  -5.8622890495135649e-01 -1.4744128916375732e-01 -1.3362679357506435e-02  -5.9273068687093344e-01 -1.6816129776990738e-02 -5.0858731840555157e-02  -4.6302234216920141e-01 3.4735482491591113e-01 -8.1937533749720987e-02  -3.2345588258555863e-01 4.5456796236631036e-01 -8.0259516850661433e-02  -3.8437801874381650e-01 4.1722600691071332e-01 -1.3232502932786333e-01  -8.1250058074513035e-02 -6.2173256947214706e-01 -1.0766165965067491e-01  -2.4627233009342106e-01 -5.7120401555997058e-01 -5.7444106671311355e-02  -3.9020651434435677e-01 -4.7713962759415901e-01 -4.1566109766010884e-02  -1.8093546059671847e-01 5.0882839175836070e-01 -9.6016784755014420e-02  -2.8486579065705742e-01 4.7774751706113711e-01 -1.4166738746338592e-01  4.7325318420874646e-01 -1.8347214148824653e-01 -3.7503721268214779e-01  -3.4935329765353279e-01 -3.5438748775850631e-01 -5.5351167206578411e-01  -1.9507204402040659e-01 -4.5795144529005677e-01 -5.1085128531459811e-01  -3.7238597325462663e-01 -3.9750219553630523e-01 -4.5778789315205992e-01  1.8565897698236400e-01 5.4704020772354012e-01 -2.5676108896244176e-01  2.1019409747548978e-01 5.1078477480844364e-01 -2.1422067372633316e-01  3.2094685281073754e-01 4.4346403437876830e-01 -2.3750207854715219e-01  3.5094140961594467e-01 2.2606996104047603e-01 -4.9254403554480913e-01  3.4737367900408761e-01 4.1573370406759974e-01 -2.0264953044861925e-01  4.5946341093542425e-01 -3.7664883273342070e-01 -9.0612718675687903e-02  3.6724917748055419e-01 -4.9348682932685367e-01 -5.0896143360276938e-02  4.0801586343055851e-01 -4.3220723139507722e-01 -1.4411177671329273e-01  5.1402584838954302e-01 1.1174672434119297e-01 -2.2964051076262529e-01  4.6088576367596112e-01 2.6497161943101832e-01 -2.0089706456544257e-01  -3.0080411710904609e-01 2.2237635665051139e-01 -5.0819556126674015e-01  -2.4615275266151904e-01 2.4387082250766173e-01 -5.4235604709814200e-01  -3.0313839405840404e-01 9.7740822540322819e-02 -5.7660505200096945e-01  4.4469513322299226e-01 2.5587124795617117e-01 -2.5960345345426605e-01  5.9775731056408536e-02 5.2437110615873006e-01 -1.4482418514449064e-01  3.4053021862395499e-01 4.1511400073032684e-01 -2.7514079115465390e-01  -5.2116512181116026e-01 -3.0857647773629543e-01 -2.7523173318316402e-02  -4.4650707344651280e-01 -4.0520163668382408e-01 -1.0133224350250031e-01  -5.4953414732641825e-01 -2.3096421851632606e-01 -7.4124706912665803e-02  -5.0152674544831144e-01 -3.2693887679195538e-01 -1.6135087265382020e-01  6.4831488102556012e-02 5.4623777078570590e-01 -1.9460750699368121e-01  1.2972077909747484e-01 -6.0727393230367033e-01 -9.8711716174375755e-02  2.1377454052355163e-01 -5.8979948530429060e-01 -3.6403234440695487e-02  3.3945934069193731e-02 -6.3212933246470349e-01 -4.6321799911711842e-02  4.0851714662213057e-01 3.5972501077782282e-01 -1.4951371615897202e-01  -2.1374776360830089e-01 1.7434335728801001e-01 -5.9692245652260656e-01  5.0001830362951050e-01 -2.8456091040534809e-01 -1.6285504670847109e-01  -4.1294349496952498e-01 -1.9500097633559851e-01 -5.6894364508884776e-01  -4.3578586184154955e-01 -1.5272786250617157e-02 -5.2169717222834477e-01  -3.5932938276201909e-01 -6.9320473523929435e-02 -5.9631359496116754e-01  2.8536103025364629e-01 -5.4342605988140968e-01 -1.1646332698153464e-01  -1.3859675266787710e-01 5.3161573365900872e-01 -1.6827065595383614e-01  5.1220712463340812e-01 -7.0810411425771089e-02 -3.3201289892921054e-01  5.2065155097875682e-01 -1.4289397993003122e-01 -2.7838523682621902e-01  5.2993910783526088e-01 -4.5418502085531984e-02 -2.4806108173589267e-01  5.2468631558558365e-01 -1.7969264537869337e-01 -2.2552542329088085e-01  -5.6464917298513218e-01 1.8495528853875168e-01 -5.9431673536290357e-02  -5.6693891316195044e-01 -1.3485800627330591e-01 -1.3299974210514892e-01  -4.6704551247476417e-01 3.3175334510066379e-01 -1.5142327629112604e-01  -5.3379171839625517e-01 2.3352917737014658e-01 -1.1943366773349581e-01  1.7663533097278855e-01 -5.6618822412402636e-01 -1.8584382884703415e-01  1.4243756510644454e-01 -3.9540514686063588e-01 -5.1911086478667945e-01  3.9714646753279542e-03 -4.7600107621075205e-01 -4.7145098529163804e-01  4.8850948647368012e-02 -5.1421142129351205e-01 -3.8282212116958003e-01  3.3879695797002168e-01 -4.6454200863118683e-01 -2.2206860351403021e-01  -3.9470125598913042e-01 -4.6943728541122942e-01 -1.7308725427638860e-01  5.4192717467090545e-01 -9.0722359203538522e-02 -1.8231043323017335e-01  2.8757902810320529e-01 4.5304242293580116e-01 -3.7064445038821153e-01  2.3630873744026187e-01 5.0876763787194634e-01 -3.0785322121731323e-01  3.5909008433948825e-01 3.6340837346053972e-01 -3.2658530352939785e-01  -4.3800557853016514e-01 -4.1465400568716027e-01 -2.6044006861096880e-01  -1.4111645960682703e-01 -6.1811006723399531e-01 -3.0888376630212207e-02  -4.7623928105367236e-01 2.5834831061683095e-01 -2.2023777610913653e-01  -3.4446397997270523e-01 4.3469263609423503e-01 -1.8237773085553807e-01  -5.4204067427904024e-01 1.7593232502346096e-01 -1.7776992751412771e-01  -5.4029219203321399e-01 -2.4887413195556632e-01 -2.2196621094377331e-01  -3.7323243158846331e-01 8.9114747207440337e-02 -5.2907649438065218e-01  5.1109037924120559e-01 4.9397729095222796e-02 -2.8355987935993293e-01  2.8239527962037980e-01 -3.3494488822118773e-01 -4.7465936993293739e-01  -5.1520446896571570e-01 -2.8346065580672780e-01 -3.1151019724822332e-01  -5.5870797707759101e-01 -1.5483523149112596e-01 -2.5474149843846938e-01  -3.1242019334989959e-02 5.5835799611364323e-01 -2.2806807536474497e-01  -1.7307866797130153e-01 5.0835036607486805e-01 -2.5276960514148389e-01  -1.0196848541192280e-01 5.4635116706832487e-01 -2.0558412656674388e-01  -5.5658690588315463e-01 -1.1113497757371044e-01 -3.0650757092853459e-01  -5.6891420396123860e-01 -2.5065379477169588e-03 -2.2104038358743083e-01  -5.4211539420617372e-01 6.4337781814925554e-02 -2.6929444185981416e-01  -3.3153473188939520e-02 5.5571519981588335e-01 -2.8541392804386323e-01  -5.7936116934120907e-01 6.8864097554906564e-02 -1.2603711666437184e-01  -5.7170982361979106e-01 -9.7416253370152486e-02 -1.9107168091729460e-01  -4.7367377210372985e-01 -3.0589653825525087e-01 -4.0670116460524985e-01  -4.2880496715728478e-01 -3.9440688430685067e-01 -3.6247214661887517e-01  4.7814847064405458e-01 -3.6321624223554239e-01 -2.7640404383313482e-02  -4.6646261197639954e-02 5.2541816732470548e-01 -1.0692745854180818e-01  -2.1544558098564315e-01 5.0271530591593794e-01 -2.0451582725728176e-01  8.2231988650894081e-02 5.0160003644311713e-01 -6.8196911155102929e-02  4.7230139765999973e-01 1.1762668343674842e-01 -3.1427083720855348e-01  4.2032369339407916e-01 2.5876812174136460e-01 -3.0263697232140668e-01  -1.9700415621422815e-01 4.7269583073717220e-01 -3.4412889869785374e-01  -9.5890059780230880e-02 -5.7345400213305808e-01 -2.8743422401414398e-01  3.9144582627525550e-03 -6.0077243368057565e-01 -2.0173327926559020e-01  -3.1407024489299845e-01 3.8003263192325348e-01 -3.0982730260035701e-01  -5.2987728829603997e-01 -4.4934652705599029e-02 -3.7530882966353174e-01  -2.5303105890632421e-01 -3.6040088933968692e-02 -6.3736687568568184e-01  6.9319499429257248e-02 5.7270819848031518e-01 -3.2479252777372630e-01  1.4293390432589895e-01 5.4560003832336390e-01 -3.8164427487023966e-01  2.3603635481757490e-01 -5.1851659300971820e-01 -2.4735764748429534e-01  4.3565402193370312e-01 1.7938414753789206e-01 -3.5928911737171187e-01  6.4668576088015045e-02 -6.1291450680129511e-01 -1.4339752453015189e-01  -5.0147360406125752e-01 -1.9574789120308753e-01 -4.4882009901142461e-01  -5.2298193428159712e-01 -1.9460789421269564e-01 -3.7769179405787284e-01  4.8665575834772523e-01 -1.3142361838247560e-02 -3.7399521803564495e-01  -3.9696346568667151e-01 3.2260212437084834e-01 -2.6093606956093135e-01  3.8992246758245180e-01 -1.0643019373182126e-01 -4.9250460683809205e-01  -2.9519071676161079e-01 4.3568606550211936e-01 -2.3739586482367045e-01  9.3906704559016840e-02 -5.4722110831814041e-01 -2.8758662525808432e-01  2.1179977657821381e-01 4.2579326929693756e-01 -5.0312161720895809e-01  3.2691901031909426e-01 3.6189578605247308e-01 -4.3193766459796096e-01  3.0097006348116884e-01 3.2890311905562819e-01 -4.9107015413618460e-01  3.8206588046912271e-01 3.0546832691244558e-01 -3.7439465668056077e-01  5.4809656042401933e-01 1.0484011142523168e-01 -4.1233845428415440e-02  -4.8992813569025012e-01 -5.8227203101421598e-02 -4.7066091340580446e-01  4.0353590533835959e-01 3.5677669479808288e-01 -2.2493037875306779e-01  -3.3160357346004155e-01 3.0711139360935708e-01 -3.8811030531252827e-01  -3.4737983401275507e-01 -4.8183818709989995e-01 -3.2214300074842417e-01  -7.2622891107673559e-02 4.5135288428754244e-01 -5.0012141720090753e-01  -1.4308656641757365e-02 5.2789567181518526e-01 -4.1691695215528812e-01  6.2751290247070934e-02 5.2367168358795790e-01 -4.5183077859825388e-01  -8.2535325579603039e-02 7.6150658237786092e-02 -6.4955940135876133e-01  -1.7855111169544480e-01 4.6079464969973054e-02 -6.4546547266216070e-01  -1.2448373507153472e-01 1.8942670723514546e-01 -6.1751097972516122e-01  -3.4618269376403932e-01 2.2615643712140579e-01 -4.6151543296870084e-01  -2.4414615782998417e-01 3.7279760572213289e-01 -4.3645645432836944e-01  -2.5455689092727447e-02 -4.2695975832313332e-01 -5.5915502543214624e-01  9.3349823659558490e-02 -3.6237174574040260e-01 -5.7953845826285288e-01  -7.6382723580193476e-02 -3.6674997612044569e-01 -6.2133332199288394e-01  -1.8128107783333358e-01 -4.0748681394680381e-01 -5.8152751673864200e-01  -1.6913333568702732e-01 3.2984217711083225e-01 -5.4717495819639450e-01  -2.0211684414977016e-01 3.6071487539515318e-01 -4.9536770031736094e-01  1.9988353490874947e-01 1.5929373603770317e-01 -6.0306588565482544e-01  2.9518137871998285e-01 1.7116909844763714e-01 -5.6392568346966632e-01  2.8834903699890180e-01 1.2486409571963170e-02 -6.0276468841801167e-01  3.5180411546689766e-01 5.6907727866270186e-02 -5.3808242264797790e-01  2.5611445154860246e-01 -2.7189160788492694e-01 -5.5086636140131939e-01  3.1324108218323343e-01 -1.2651781204939486e-01 -5.7038946380588562e-01  2.2521915757925831e-01 -2.2398343686998395e-01 -6.0119734059091745e-01  1.9774014963701819e-01 -1.6141721676060586e-01 -6.4412626400745510e-01  -9.7090231302011595e-02 5.1952149218635701e-01 -3.7315431181307590e-01  -4.4454127973280749e-01 -2.9636963523618776e-01 -4.8235958410324775e-01  8.3797179590819809e-02 5.6399013855916125e-01 -2.3258295014520197e-01  -2.8007104966055146e-01 -3.2859210677987644e-01 -6.0851714628760556e-01  -4.5821569618139307e-01 -2.2980545373371089e-01 -5.1404449234194849e-01  -3.2997451455996801e-01 -2.1429091761369995e-01 -6.1947319479643081e-01  -2.0168760061983895e-01 -2.8883638645654175e-01 -6.4575150638695256e-01  -2.3971546311879768e-01 -1.8581046702444320e-01 -6.5399361184103866e-01  -1.5539872614288483e-01 -1.3378468601561072e-01 -6.7550499983786416e-01  -2.5609252595846448e-02 -5.4577851364523491e-02 -6.7266623760794475e-01  -1.2982439480250269e-01 4.6160069605300452e-01 -4.4488354401935759e-01  9.0568286859399688e-02 -2.9322830555252005e-01 -6.3290563434295510e-01  3.6917267107772472e-01 -3.9268237022457297e-02 -5.2469533401606727e-01  -8.8520565660024683e-02 3.5487193241011089e-01 -5.6609180189907826e-01  7.9982621613710239e-02 4.7836303671175540e-01 -5.0711443426401126e-01  -8.1335853389182922e-02 -2.6809547586119969e-01 -6.6645992263109854e-01  1.5183014179827498e-01 -5.5722141228434524e-02 -6.6745498777150702e-01  4.1998160913213588e-02 -1.8042808907145963e-01 -6.7793097801286273e-01  2.3211602738025350e-01 3.0553267383617633e-01 -5.6166971575427993e-01  6.9497799715960290e-02 3.7906329249331278e-01 -5.7322352533820831e-01  1.9577790500491613e-01 4.9489139612937977e-01 -4.4163464959685056e-01  -1.2395331826941912e-02 2.1090311566222655e-01 -5.9712141341660929e-01  5.4571571838953288e-02 6.9570492583478666e-02 -6.2903554661018424e-01  -5.6226975919400866e-02 2.8244384444742032e-01 -5.9147403238816521e-01  1.0498815511948796e-01 2.6785595229939319e-01 -5.9621222905774118e-01  1.5448319108319652e-01 1.6107567857186517e-01 -2.4704276810297046e-01  1.8097010540125497e-01 1.1400969722859328e-01 -2.3038463849468241e-01  1.6024493358943295e-01 1.6383130283542499e-01 -2.9695803912937024e-01  -1.9786358555482800e-01 1.7200674603837754e-01 -1.3785076793963022e-01  -2.4852048826821219e-01 1.6041422470524067e-01 -8.8393061404323001e-02  -2.0769628779055427e-01 2.1043664723793989e-01 -6.7807336082236713e-02  1.6862176043677146e-01 -2.8793777872589366e-01 -7.2499536414517993e-02  1.0612017371714100e-01 -3.2458219304548441e-01 -8.6815548476172413e-02  -3.1406871106565937e-01 -7.1358193432019171e-02 -8.5838371115709952e-02  -3.0138203147709453e-01 -1.2930945309301700e-01 -5.8406880089116368e-02  1.8049176046273663e-01 1.0711985977697969e-01 -2.6131179205408089e-01  2.6477956698917471e-01 -1.4055163352889111e-01 -5.3196880451603853e-02  2.7390633309665807e-01 -1.0582611089052250e-01 -5.3945820456390334e-02  4.4392056273100215e-02 -3.3736989185470079e-02 -5.5890863808247537e-01  1.0873005213582533e-02 -7.4504794730595068e-03 -5.4469710285070105e-01  8.3585922553984324e-02 2.3978943704607045e-02 -5.3818836974780904e-01  1.7986229588634609e-01 2.2203776115206214e-01 -5.6459078700376510e-02  2.0446856924871665e-01 1.8531939238583589e-01 -8.9015044296109735e-02  2.4603928744679693e-01 1.4004779868757239e-01 -9.4044164016294826e-02  -2.6847149022077677e-01 -1.3772192485782922e-01 -2.2513965615436499e-01  -2.8583194435630577e-01 -7.6193181300516694e-02 -1.9820304277683276e-01  -2.7673967334145483e-01 -1.0195375113371306e-01 -2.5554364379932293e-01  -2.8452131871628034e-01 -4.6430199895580219e-02 -2.1507879071356917e-01  3.2975724662588614e-02 4.0675245155172381e-02 -5.3964695575760313e-01  -4.1763615478991774e-02 2.1703061313979932e-01 -1.6349855891758339e-01  -4.6891074224347712e-02 2.3549235982169547e-01 -1.1996136567084727e-01  2.2235995174095708e-02 2.3886849692676362e-01 -1.0880918769726056e-01  -2.6852401151422828e-01 -1.2468054266237037e-01 -3.2056105513206262e-01  -2.7488347300284427e-01 -5.4695459394750769e-02 -3.0139882924856998e-01  -2.5232300509977651e-01 -1.6776130162623556e-01 -2.9016505272798176e-01  -2.4676949079379680e-02 2.6043807112014067e-01 -7.8472324937987212e-02  -7.0682160776510891e-02 2.5951358421453152e-01 -