<?xml version="1.0"?>
<VTKFile type="UnstructuredGrid"  version="0.1"  >
<UnstructuredGrid>
<Piece  NumberOfPoints="624" NumberOfCells="1872">
<Points>
<DataArray  type="Float64"  NumberOfComponents="3"  format="ascii">-2.343570190710273 1.04779762423437 -1.329117458416066e-15  -1.475319399643181 -2.890585043675379 -2.1976366981425e-16  -2.512619007883921 0.3552633907559296 -1.106628455890282e-15  -2.499810667331528 -0.3476753218966933 -6.605718903671013e-16  -2.253533898484972 -1.008078090554348 -6.64601629770984e-16  -1.788778511239596 -1.544124411672877 -4.440329554312597e-16  -1.188560679994993 -1.930995204038921 -4.430785747140178e-16  -0.5049901433560828 -2.152694568386175 -4.420099670360029e-16  0.214761063013609 -2.188451495606047 -4.38481967244396e-16  0.9240642145074022 -2.077295807041225 -4.434714905038938e-16  1.574577557466119 -1.785801962373439 -4.411186435789134e-16  2.110085414607172 -1.317637425776793 -4.440569618517811e-16  2.492216580968082 -0.7195361875084625 -6.639760874171048e-16  2.679845982342881 -0.03596205854306658 -8.874961409253817e-16  2.59633471501725 0.6665985319322901 -1.108908317021127e-15  2.291965971636456 1.304943484755268 -1.3320733820176e-15  1.826187643167464 1.84685119585585 -1.329675511319948e-15  1.237701739297491 2.260820755875209 -1.327359371992906e-15  0.5664386344061285 2.530402287775334 -1.551502277851818e-15  -0.1496320884782737 2.619921032518143 -1.549922760006115e-15  -0.8565116241156948 2.499280232460331 -1.548416315965221e-15  -1.492420043496565 2.174491211217122 -1.328899721475869e-15  -1.996205677602904 1.67107470591053 -1.329527564018622e-15  -0.7622463492183318 -3.139464218051294 -2.24984826482658e-16  -0.01286032749031656 -3.226367777870775 1.467513098281811e-17  0.7390408945554447 -3.157649056926041 -2.207553030342535e-16  1.462491964821501 -2.941537919883831 -2.14318950829779e-16  2.123661163837112 -2.575218647905878 -2.304195157736151e-16  2.686339673380838 -2.074324056372784 -4.415241867659564e-16  3.130578535368525 -1.465058090891794 -4.419629761476453e-16  3.441099658532647 -0.7789110933917611 -6.606712169395766e-16  3.610116902664285 -0.04019262917946791 -8.875255978818207e-16  3.57751640129813 0.7207400622893773 -1.108773227116167e-15  3.315072455551215 1.434806130743741 -1.329659265105339e-15  2.866041144331681 2.046537775600745 -1.32714855960511e-15  2.284044380353777 2.526836298044719 -1.547385501600084e-15  1.615310108457277 2.872404527904169 -1.554960748523595e-15  0.8966959919961989 3.084309909462743 -1.549751860336856e-15  0.1581763634992313 3.210885002624311 -1.771346627460634e-15  -0.5918121040668927 3.217431133540213 -1.779477346224318e-15  -1.326009683024496 3.065293156652158 -1.553005440176233e-15  -1.994458705710813 2.721647256898403 -1.545783289498039e-15  -2.555065270476243 2.221764044455021 -1.329676922941178e-15  -2.978385577926801 1.601637925774915 -1.323825128005596e-15  -3.24479920493058 0.8999339005179493 -1.099176373478638e-15  -3.34541886440803 0.1572857064542008 -8.912212284088071e-16  -3.262420076245351 -0.5872122886698551 -6.742460333625561e-16  -3.018075991519108 -1.295514320986839 -4.450485214880163e-16  -2.62839380111062 -1.936935155938858 -4.445274616474799e-16  -2.107236553824857 -2.478937307219547 -2.187732373757855e-16  0.2744227475882012 -1.698791073989978 -4.471200998154838  0.5197918551043481 -1.363639097338774 -5.034906267227734  0.9223436288592974 -1.702243093989083 -4.556063892590291  -2.81665002062912 0.3003157882214817 -1.60769310431227  -2.645815169163382 0.8686742539660087 -1.746668149471525  -2.762669776497744 0.4939719576357144 -2.06979880939067  -0.4869817351937401 2.553463266545993 -0.4976998796692939  0.1660721520520234 2.537298413745518 -0.5983987783116811  -0.4760238197655407 2.341382709868013 -1.176255343050477  -2.645138137036005 0.826524265704896 -1.232790482771218  1.187820074304167 -1.326617711092683 -5.226601925092147  -1.323624019992635 2.045235117296802 -3.496422093008701  -0.9880094759791878 2.303547664856109 -2.99530377435959  -0.7785573622529389 2.292544911751095 -3.461322216999653  -1.549742376294839 2.026717981872073 -2.749352193383598  0.6703043261626979 -2.369717366922536 -0.6672880652215177  0.9984478562564827 -2.432058717749014 -1.326782386083701  1.269822067828186 -2.201238484931936 -0.6526100664720682  1.635636639446644 -2.093343523987523 -1.261902517225342  1.442940868221393 -2.209905734237162 -1.981989432183417  0.7319937877724148 -2.517623614125888 -2.10153464988189  -0.2178263823433899 1.571798508812283 -5.163772755684867  -0.7801624974127579 1.623356572478814 -4.673801001224431  -0.1951070680242046 2.044650578502713 -4.461618295440073  0.4255307023070722 2.276823610790871 -1.290183725618786  1.192646531365212 2.098219194317329 -1.177372048184223  0.932132874181186 2.101196773662766 -1.944608260338964  1.897390449790795 -1.787340217193156 -2.572646113230167  2.007360636409961 -1.749737414105521 -1.739356730594132  1.896877668417422 -1.683707956480739 -3.533479420526652  2.247972728984598 -1.343694352035516 -3.270612525688653  2.337786503137832 1.235203572414186 -5.169221214686894  1.79650981911515 1.507954413564249 -5.259412354566895  2.00089408298502 1.650453721041258 -4.572497366639425  -0.8975704434687138 -2.39681971005442 -1.29990134179675  -0.3246838182984127 -2.509358223562791 -1.25260198129144  -0.8535574426520099 -2.309745925139395 -0.7246065118000183  1.936731825004993 -1.772173623003622 -0.6345169618925386  0.2460011762609212 -2.528461662272839 -2.657100611719944  -0.0536028195353159 -2.585153517692528 -2.014265346182036  2.799352248066774 0.7397552390761948 -4.95980717039663  2.607508936069545 0.7787792012950017 -5.76390068936173  0.3948973834681799 -2.562775884274274 -1.439402063827524  -1.44822960613447 -2.045007257865634 -0.5768528244013531  -0.1653673810373818 -2.277932003897145 -3.313411615130777  0.7321595106080203 -2.275344811286256 -3.385285710463186  0.8443337789671672 2.363148202273138 -0.6681387112067004  2.3691909490873 -1.283273216128381 -0.6147362439440562  0.4925949948007182 -2.029225108025392 -3.977307268322864  2.387620907489239 -1.243993774425614 -1.388688461378035  2.554026331836998 -0.7354628190021359 -1.644431180627521  2.638234016341487 -0.780519549269318 -0.9510964390429028  2.33667055409198 -1.1552075241311 -2.111966883441787  -0.2000077467243 2.298117614935169 -1.993012121973223  -1.884182862927906 -1.859622154218545 -0.9101153383367581  -2.250302937623494 1.456870269551436 -0.7958406223432513  -2.415322083602728 1.275187794818579 -1.610893622727255  2.126396782916047 -1.652153153715264 -1.163363187537828  -2.285887889391236 -1.394039485483333 -0.6864797036707184  1.533353744336492 2.056490552281201 -0.5997460664286832  2.530083445261022 -0.5570434889936299 -2.267057850761527  2.678843316636951 -0.09837695852281939 -1.602267568244225  2.775487555507707 -0.2647252097733385 -0.6692567092988504  -2.543129623697792 -0.8663432329310454 -0.5144705936693609  -2.624419269702194 -1.003060010112211 -1.211362324579526  -2.284616372259486 -1.53190779354218 -1.280269040770212  1.409334637082611 1.85918641694035 -4.889276125398086  -0.3520853786330888 -0.08171078773272933 -5.536927325481212  -0.3270842152320247 -0.6291637709445472 -5.25880395093037  -0.8430476357553778 -0.1787708692035037 -5.054863575259902  0.3514764492139806 -0.4140150484648638 -5.8628442331561  -1.325797638547699 1.242172471221045 -4.442008385161705  -1.774255474680931 1.217016165611917 -3.97260873608121  -1.472102606709526 1.623546645606911 -3.947541938896677  -1.918231618632601 1.550424634713436 -3.417944003696718  2.239083763706624 1.131481034120454 -2.455370656594542  2.434825547859159 1.121052379287159 -3.085280956759792  2.002926167867517 1.492995393708085 -2.838143430000771  -2.386262051146264 -1.309663035230952 -1.890012202875303  -1.351450386545946 -2.225319073198671 -1.342611423383761  -1.880369818345202 1.78870368528468 -1.428477583099406  -1.711038902749904 2.012403940675202 -0.7390410930854994  2.12960199235408 1.583431446326119 -3.766732039956099  -1.130075779995799 -1.307186939702836 -3.888969061623135  -0.8231721292046613 -1.849247621240712 -3.522520509893341  -1.39749979143475 -1.472503786239597 -3.375431201343379  -1.320466475847922 -1.867893014268549 -2.909219323007589  -1.306104230211129 -0.751367056162253 -4.188764243956944  -0.8394553070469806 -1.163186214582065 -4.34485643258266  -0.8464625210054987 -0.7153292962908973 -4.722058549491222  0.1576170040440782 -0.9675035767826521 -5.323204203491485  0.7720164172985291 -1.018862288333729 -5.604358745347635  -0.247549151566217 -1.234588887954523 -4.784895743161631  -0.9007164169760811 1.943324995552491 -4.077644281172258  -1.285348345472051 -2.16166974188296 -2.230877181099826  -1.885340454707008 -1.880771401694298 -1.723478814674853  -1.836027660158473 -1.694271172809538 -2.3878659580163  2.519875184048034 1.231829721455302 -4.43639181216753  -1.108444867423586 2.358762752776598 -0.6730175186536316  -1.243385496081119 2.144016981761863 -1.258736121339592  -0.2630084866772947 -2.348146684962656 -0.5119912866332492  1.831166491973976 1.768845761210338 -1.038116625704768  -2.401561539268967 0.9798016294265733 -3.020815887328325  -2.143700206882904 1.534272238255413 -2.646066976186027  -2.221203335729208 -0.2170945523486355 -3.354293102309062  -2.211044949197518 -0.8101885762786074 -2.938478128180964  -2.53491143610933 -0.2484500068673472 -2.780497553899043  2.646218409826389 0.04401269431900737 -2.594012038165619  -1.80863739974988 -0.8127544908261128 -3.512227488673247  2.577781839407994 -0.7962267858227098 -3.65398995243056  2.401956237569963 -1.082082213158251 -2.79076612411857  2.632036682417799 -0.5194096196433126 -2.920723164878033  -2.114533918684719 0.3117119721175182 -3.699840377230772  -1.776683868369374 -0.2091089729694578 -3.959226854732383  -0.498794467759975 -2.443168613594647 -2.519198832891531  -0.8791705547310138 2.264117062940497 -2.352618799381789  -0.3550729028614867 2.424577622516016 -2.819089998
[...]
<PointData  Vectors="f_4076022-0"> 
<DataArray  type="Float64"  Name="f_4076022-0"  NumberOfComponents="3" format="ascii">-2.8205753856323995e-01 1.5927331482629528e-01 0.0000000000000000e+00  -1.3995042815094402e-01 -2.9910937526751213e-01 0.0000000000000000e+00  -3.1720802323514202e-01 5.6894930118330654e-02 0.0000000000000000e+00  -3.2945684138212655e-01 -6.2207540741134777e-02 0.0000000000000000e+00  -3.1787542194476526e-01 -1.8409736105119931e-01 0.0000000000000000e+00  -2.8100177214775390e-01 -2.9785811252181560e-01 0.0000000000000000e+00  -2.1762831444639807e-01 -3.8355493303541616e-01 0.0000000000000000e+00  -1.3704816795498381e-01 -4.3268623695734787e-01 0.0000000000000000e+00  -4.8097021073277617e-02 -4.4478702435588158e-01 0.0000000000000000e+00  4.1453949596603978e-02 -4.1687473889521831e-01 0.0000000000000000e+00  1.2803121196266085e-01 -3.5654113205899834e-01 0.0000000000000000e+00  1.9519230301390017e-01 -2.7120342787723900e-01 0.0000000000000000e+00  2.3463308459137661e-01 -1.6688152811475440e-01 0.0000000000000000e+00  2.4322991235722649e-01 -5.3206379304419224e-02 0.0000000000000000e+00  2.4381167066096790e-01 6.1632613820217050e-02 0.0000000000000000e+00  2.3180435276671638e-01 1.7905895394613761e-01 0.0000000000000000e+00  2.0457292599293433e-01 2.8073009966896384e-01 0.0000000000000000e+00  1.5600867874093841e-01 3.6116476089122601e-01 0.0000000000000000e+00  8.6674856810366199e-02 4.0664008847051097e-01 0.0000000000000000e+00  3.6303081957441198e-03 4.0867847513867400e-01 0.0000000000000000e+00  -8.1801265437568549e-02 3.7467229658804729e-01 0.0000000000000000e+00  -1.5839015990631322e-01 3.1747134243094260e-01 0.0000000000000000e+00  -2.2875097156517954e-01 2.4651707776306067e-01 0.0000000000000000e+00  -8.9439808332006196e-02 -3.2331691290219794e-01 0.0000000000000000e+00  -3.1401403031431845e-02 -3.2897691189660427e-01 0.0000000000000000e+00  2.4275894471998821e-02 -3.1346846783234167e-01 0.0000000000000000e+00  7.2596605475009512e-02 -2.7875945156866383e-01 0.0000000000000000e+00  1.0827992361111653e-01 -2.3441976711896359e-01 0.0000000000000000e+00  1.3778895360746926e-01 -1.7868616088524658e-01 0.0000000000000000e+00  1.5379973714122902e-01 -1.2009651614569564e-01 0.0000000000000000e+00  1.5685618040601448e-01 -5.5164079864392035e-02 0.0000000000000000e+00  1.4705514744643863e-01 -1.5508289876466350e-03 0.0000000000000000e+00  1.4016425329846552e-01 3.7851033538964622e-02 0.0000000000000000e+00  1.4527713741994563e-01 8.1293407097200301e-02 0.0000000000000000e+00  1.5241977653804109e-01 1.3796210672269352e-01 0.0000000000000000e+00  1.4527130756463097e-01 2.1125032175826328e-01 0.0000000000000000e+00  1.1656691410255476e-01 2.7831314709670135e-01 0.0000000000000000e+00  6.0104720934247881e-02 3.2759670057986007e-01 0.0000000000000000e+00  -9.9454159895133679e-03 3.3500274264689089e-01 0.0000000000000000e+00  -7.5510502057875462e-02 3.0375630873000353e-01 0.0000000000000000e+00  -1.2251416844789020e-01 2.5303605863206613e-01 0.0000000000000000e+00  -1.5183643355337742e-01 2.0351455837172314e-01 0.0000000000000000e+00  -1.7910222727756939e-01 1.5225567390203706e-01 0.0000000000000000e+00  -2.0178648874148575e-01 1.0103189542399922e-01 0.0000000000000000e+00  -2.1782003322712948e-01 4.7011245397905702e-02 0.0000000000000000e+00  -2.2840476837947957e-01 -1.2432134831756016e-02 0.0000000000000000e+00  -2.3345349761195672e-01 -7.2888004402102718e-02 0.0000000000000000e+00  -2.2947400814756283e-01 -1.3931658498220831e-01 0.0000000000000000e+00  -2.1342057683593577e-01 -2.0291787689307408e-01 0.0000000000000000e+00  -1.8256432170067680e-01 -2.5802510039067905e-01 0.0000000000000000e+00  -4.5825222259229803e-02 -2.4338998928629918e-01 -2.4368262278309366e-01  -3.3867172441607613e-02 -2.0875358557530707e-01 -2.5439492399163777e-01  2.3034615073271789e-02 -2.2829096217767172e-01 -2.1603870645220927e-01  -2.5388473952528101e-01 1.4981820257292814e-02 -6.5191216926176743e-02  -2.3443309417877009e-01 8.4834310246059697e-02 -6.7986739349181091e-02  -2.3621830224908694e-01 2.5719589810984007e-02 -9.4162600881933872e-02  -4.5287373407234266e-02 3.9097933447754857e-01 -2.5283990479179098e-02  3.0362201582746648e-02 4.0886353883277099e-01 -2.9809350917268128e-02  -4.0316312952728202e-02 3.8423044172377913e-01 -4.8272190863228606e-02  -2.5564310192412870e-01 9.2063378798492260e-02 -3.8051814367452974e-02  2.9486571338314897e-02 -1.8378002137731539e-01 -2.1926214960782386e-01  -1.1728386080351627e-01 1.8935745698953466e-01 -1.4623650859560258e-01  -8.4270114740069887e-02 2.5939090478531462e-01 -1.1095849271858640e-01  -6.8658382580489050e-02 2.4288825072186968e-01 -1.3699556898349213e-01  -1.3287120501568678e-01 2.2287503699734848e-01 -1.0284292194118705e-01  2.2266102460535186e-02 -4.0897030269101459e-01 -5.6024804541170720e-03  6.2359310033058085e-02 -3.5593099494415442e-01 -4.3642525563216100e-02  9.3844544288961149e-02 -3.6903984103123505e-01 -6.7096364814493072e-03  1.3815989111338250e-01 -3.1126111482468782e-01 -3.9124545883883075e-02  1.2041828243898631e-01 -2.9929106957578339e-01 -7.8182899703054670e-02  3.4126385203402006e-02 -3.3033245878065115e-01 -9.2015724939666310e-02  -7.3429407286820639e-02 1.2886852925124356e-01 -2.2309010197507928e-01  -1.0680891774547548e-01 1.2876734517671162e-01 -2.0631386231131918e-01  -4.6666330109472999e-02 2.0646675207023937e-01 -1.8109564525421520e-01  6.1664328458281778e-02 3.9975205965848654e-01 -4.9461504524242701e-02  1.3972024044650647e-01 3.6229223608880012e-01 -4.6270322447360950e-02  1.1758454445588791e-01 3.6602021436891724e-01 -5.7343864240007238e-02  1.7468960567952202e-01 -2.3550350743125917e-01 -9.1673420171805006e-02  1.8769756784513836e-01 -2.4870850287582810e-01 -6.0318041152488330e-02  1.4995915660393541e-01 -2.1034386798195551e-01 -1.2986758385686509e-01  1.9755982170897901e-01 -1.7465116672610143e-01 -1.0115529624778634e-01  1.4276739923800424e-01 1.5828304136980140e-01 -1.4521512187749647e-01  9.8447740331267672e-02 1.8876282087780491e-01 -1.7099301882219589e-01  1.4488825446810649e-01 2.1427682003330223e-01 -1.3690673438192272e-01  -1.4175598315182672e-01 -3.6801722734352682e-01 -5.0661322963112980e-02  -8.5310318862683240e-02 -3.9046638875725626e-01 -4.1840612931738484e-02  -1.4850981200930125e-01 -3.9935332743964436e-01 -1.2322297399596609e-02  1.6979736452351593e-01 -2.9431012158029751e-01 -9.8562271194408239e-03  -2.0685703654818598e-02 -3.1461608615396175e-01 -1.3454205273765937e-01  -5.2774770641561872e-02 -3.4779959637778635e-01 -9.4606436713478750e-02  1.7852491461658609e-01 9.4840219575269807e-02 -1.1968916429132916e-01  1.2617693440724204e-01 9.5187991586643692e-02 -1.4869070357898684e-01  -6.9955837154608048e-03 -3.7453154007086820e-01 -5.1458426965087539e-02  -2.1489031781853976e-01 -3.5717644795728704e-01 -7.2898426386134377e-03  -7.2025002166213145e-02 -2.9172068159190384e-01 -1.8745544698340716e-01  2.5364490736364251e-02 -2.7698166717907330e-01 -1.6726922367379005e-01  1.0587076909263379e-01 3.9203152694601667e-01 -3.0613679407620741e-02  2.1503099214793645e-01 -2.1552122570353829e-01 -1.0255716625603215e-02  -9.6431918242120915e-03 -2.6143504145450158e-01 -2.0811878339798301e-01  2.2750451698881025e-01 -1.8797252305569262e-01 -4.3888742285985029e-02  2.4969902637026350e-01 -1.1356261683299927e-01 -4.9351433204183601e-02  2.3860241130247237e-01 -1.2983291084050511e-01 -2.5148246940265857e-02  2.3551686679968351e-01 -1.6736904790003024e-01 -6.4228811901519522e-02  -4.4190902459594686e-03 3.7130076978101900e-01 -5.9058814751881399e-02  -2.3829776641665146e-01 -2.9539524722203508e-01 -2.8035471883912401e-02  -2.3691122280262036e-01 1.9048343468402221e-01 -2.0350180313143420e-02  -2.2081248556355534e-01 1.4732285276583498e-01 -5.6844403278507566e-02  1.9316177781726832e-01 -2.4988837295991370e-01 -3.4337275549968738e-02  -2.7950025182718830e-01 -2.2864125202327365e-01 -1.2068910179685855e-02  1.6876445248957703e-01 3.3285044519195606e-01 -2.4423327505688073e-02  2.5635092372001644e-01 -8.5218865300663679e-02 -5.6814527691928310e-02  2.5096458108850689e-01 -2.0948366064359590e-02 -4.4811752667262852e-02  2.4045713968910512e-01 -6.0636253991542939e-02 -1.4742748696249419e-02  -3.0610719089217292e-01 -1.4944812745400701e-01 -1.9604744517011082e-03  -2.7105527450472927e-01 -1.5185106541273188e-01 -4.7187535281357031e-02  -2.5119147049506807e-01 -2.2668347762071461e-01 -5.6609429681864491e-02  8.3670005304819842e-02 2.2071888666376308e-01 -1.7038148675983136e-01  -1.2079368588310664e-01 -8.2413612993737423e-02 -2.9768307279386569e-01  -1.2564267802225465e-01 -1.5029527594449008e-01 -2.9872711867991231e-01  -1.6301845593901093e-01 -1.0718342542112008e-01 -2.9233182108938705e-01  -6.5879100894481651e-02 -9.7578683849292150e-02 -2.8021369874968205e-01  -1.5247619794107084e-01 6.9989364527378584e-02 -2.1380122060947709e-01  -1.7070522659133744e-01 6.5632377172708548e-02 -1.9346376832515508e-01  -1.4120564763427287e-01 1.2489962215949646e-01 -1.8275523172187164e-01  -1.6417379853528891e-01 1.1926896154026748e-01 -1.5189827346403650e-01  2.2731956555796279e-01 1.9036408673610708e-01 -5.2758959305912130e-02  2.2139513351036602e-01 1.6676670069203892e-01 -6.2159348470535267e-02  2.0237669005639830e-01 2.4560519084818361e-01 -6.2234356048653218e-02  -2.4385579450725015e-01 -1.9437895340890318e-01 -1.0689427151990873e-01  -1.8183868334956829e-01 -3.3685501221415909e-01 -5.8805376398643062e-02  -1.8296055980389730e-01 2.4152516552298861e-01 -4.7450520505688494e-02  -1.7998315240971285e-01 2.7806698432330534e-01 -2.5926120911024059e-02  1.8331064271543646e-01 2.2557226110549461e-01 -9.4359864874468360e-02  -1.9464338998537065e-01 -2.3115936623593661e-01 -2.5680978429739298e-01  -1.5373576096757838e-01 -2.7303528379123293e-01 -2.2435753440451056e-01  -2.0935921097223484e-01 -2.4479912982983248e-01 -2.2935652995368844e-01  -1.8949547641796333e-01 -2.7489468805254980e-01 -1.8841547814534493e-01  -2.1152972024163999e-01 -1.7796290661783823e-01 -2.7280965088477083e-01  -1.7055189688337238e-01 -2.1621230239783693e-01 -2.7548362647687957e-01  -1.7153312220421454e-01 -1.7043204982810631e-01 -2.8978966796057426e-01  -7.8713557947453147e-02 -1.7483609416559251e-01 -2.8289323924992249e-01  -2.0935819740095285e-02 -1.5454268377301555e-01 -2.5285365515307268e-01  -1.1123215218943315e-01 -2.1388509401924932e-01 -2.7891296085794498e-01  -9.6607207956421720e-02 1.8148498960051629e-01 -1.7620614414119859e-01  -1.7325202521035063e-01 -3.0418411420864200e-01 -1.3024412734045829e-01  -2.1697652302449108e-01 -2.7096567682136774e-01 -9.3386595210507323e-02  -2.1757967144508197e-01 -2.5321432296254309e-01 -1.5126238900985561e-01  1.8568033692703395e-01 1.5790084530275197e-01 -1.1309698451909719e-01  -1.1457611263154878e-01 3.4477979225556227e-01 -2.8810219486279983e-02  -1.2277463754306735e-01 3.2377882247307843e-01 -4.6239863704906334e-02  -8.8554224393711051e-02 -4.3234475271470857e-01 -1.4058110434159330e-03  1.9180218021228548e-01 2.8608421449022226e-01 -3.8580113334568615e-02  -2.0353623255989911e-01 5.5539690845521558e-02 -1.4297391966476902e-01  -1.8109066744200147e-01 1.4700098471787473e-01 -1.0882829538883555e-01  -2.4230525843612521e-01 -1.0683066093943591e-01 -2.1264038987566575e-01  -2.4741749633529631e-01 -1.6513859693671454e-01 -1.9573022542352764e-01  -2.4579059657517441e-01 -8.9420336136246878e-02 -1.6630005943483472e-01  2.5258700323116606e-01 6.3878000589345368e-03 -5.1728358173795293e-02  -2.3952450452819596e-01 -1.8083245461873590e-01 -2.3964483210939996e-01  2.1645106504661282e-01 -1.0839623751485615e-01 -9.3091588430488412e-02  2.2962238996128778e-01 -1.4822212168782667e-01 -7.5198447638370775e-02  2.4549836442758891e-01 -7.3375035728306767e-02 -6.4531141975044129e-02  -2.2242292500022737e-01 -4.9050328570218273e-02 -2.1501869880104180e-01  -2.2883068544212401e-01 -1.1735989347475977e-01 -2.5260580896575952e-01  -1.0090770810981860e-01 -3.2075646789598455e-01 -1.3827696584764135e-01  -7.5179159194084105e-02 3.1323203867091159e-01 -7.5028990362724132e-02  -2.3680253069867419e-02 3.1749436672991244e-01 -9.3666065224322567e-02  -2.2576593915446966e-01 -2.3485701248506345e-02 -1.7276671474001543e-01  -1.3251040959800687e-02 1.9929028117646913e-01 -1.9183558500995176e-01  1.2293121183930281e-02 -8.3755128518243308e-02 -2.3107627181767731e-01  -3.7521628223316353e-02 -3.6423121620882966e-02 -2.5503095796694969e-01  1.5352088655592872e-02 -2.9421279119694246e-02 -2.1876594239612596e-01  2.3412245111519051e-01 -1.3842219445773733e-02 -7.1990803243699511e-02  2.0133423934219583e-01 -4.4692078231287964e-02 -9.9916166471747420e-02  -2.2925106997259773e-01 -2.2834801459631851e-01 -2.0093131984550139e-01  -3.9131242572272067e-02 -4.2110269828099567e-01 -9.9015368991461541e-03  -2.6863058398671158e-01 -6.1672136090731224e-02 -5.4866886156659085e-02  -2.7854427014632827e-01 1.7681101854594084e-02 -2.7917236977538441e-02  -2.4057261599318364e-01 -2.0010384495124076e-01 -1.6026937432466182e-01  -2.4925152339112552e-01 -5.5369202172790677e-02 -1.0278581489145870e-01  -6.9200286976020500e-02 3.5648734507410607e-01 -5.3304091148182554e-02  -1.2536066494396200e-01 2.8909440062331737e-01 -6.4099225263448772e-02  -1.2277100889074839e-01 -3.4721120133106848e-01 -8.8999118894093648e-02  5.4269796361590739e-02 3.5659097818513058e-01 -7.5438776933545088e-02  2.6117784636275967e-02 3.1693835978703377e-01 -1.0804276537110039e-01  8.4298754718716298e-02 1.4063410259328618e-01 -1.7446156241845973e-01  -1.9986104510668298e-01 -1.0939310927340590e-01 -2.7480634244474572e-01  2.3224663650615132e-01 1.4333328234229750e-01 -3.8133332157634703e-02  2.3650142867574422e-01 1.5710596802601734e-01 -5.0611475027509220e-02  2.1468907073787524e-01 2.3184682667969378e-01 -4.7758913249660737e-02  2.1032013530257723e-01 2.4858903850713335e-01 -5.4324310979820753e-02  -1.9590452341447062e-01 1.7446573235452689e-01 -7.3895754887372045e-02  -1.6157265008241667e-01 2.2181463134876631e-01 -7.7439727839934663e-02  7.9035282348444355e-02 -2.8983222925910002e-01 -1.1876801088291174e-01  1.7873590598459427e-01 -1.6215022603417220e-01 -1.2053516376468290e-01  1.6509570257373002e-01 -1.3296065623723533e-01 -1.2864084847225671e-01  7.7441590202863411e-02 -2.3422305596832313e-01 -1.7654736645546487e-01  -2.5408335642740382e-01 -1.2188807868020191e-01 -9.1930895542859672e-02  -2.4837711514974203e-01 -1.3864325154367246e-01 -1.3754350522081843e-01  -2.1400772823146802e-01 9.3294996734978083e-02 -9.6438904305336637e-02  -2.9729502102947331e-01 -7.2590925627787600e-02 -1.5282124805396350e-02  2.9100567317899350e-02 2.0250356912933434e-01 -1.9318518581041766e-01  -1.8659392088699128e-02 1.5879761998947459e-01 -2.1874482785117502e-01  1.7996404812345856e-01 3.1084693942590835e-01 -5.2680226336762739e-02  -1.7249270589069829e-01 -2.8954297991625792e-02 -2.5762895315715273e-01  -1.3107256110498097e-01 4.9390538432176848e-02 -2.4071768201217089e-01  -1.9626574793620832e-01 -2.1770357466459604e-02 -2.3232961316897768e-01  -3.1215645227562316e-01 -5.9922172704283197e-03 3.0646597521941394e-03  -2.8719680023256294e-01 9.3556592740180203e-02 -5.5912998369647355e-03  2.3759409340018159e-01 4.5347955339451948e-02 -2.2130892448522770e-02  2.4344373192476490e-01 7.9771287139619437e-02 -4.3020290286502338e-02  -2.2906577084650109e-01 -2.1808868068384588e-03 -1.3066771032914701e-01  1.3647212583392085e-01 -1.8737554192504413e-01 -1.4889883923781735e-01  9.2773430597054993e-02 2.9769272743963243e-01 -1.1829160852821434e-01  2.6732739448650487e-02 2.8217495923919639e-01 -1.3967957545623774e-01  8.3381265746268488e-02 3.2545327447183464e-01 -9.9835879989475698e-02  5.9628221321726148e-02 2.5676211449003583e-01 -1.5559073517421423e-01  3.1165498719859436e-02 1.6472160862991941e-01 -2.0393446004450813e-01  -1.3230649068731903e-01 -2.6542145300917655e-02 -2.7848139854259629e-01  2.1218952158684704e-01 1.3773550875583226e-01 -8.3145085632589183e-02  2.3246945406991282e-01 7.5826410014868631e-02 -6.4090565145847989e-02  2.4231473555708735e-01 1.0275375177372614e-01 -5.0068630457508451e-02  2.1572446971983675e-01 5.6248588009273751e-02 -8.7823250783826509e-02  1.7009610916662465e-01 -2.3024414130223280e-02 -1.2024543418580380e-01  1.9219746045383249e-01 2.4596723948052433e-02 -1.0764072473168457e-01  1.1650032285293127e-01 3.4261920521275918e-01 -7.5241503396089454e-02  -1.4034107531746220e-01 -2.9826816395328515e-01 -1.7755735497261194e-01  -3.2881192460366908e-02 2.5989867140272271e-01 -1.4449209662229648e-01  -8.3040785212866397e-02 -2.6903568929763833e-01 -2.2905215406830656e-01  -1.3263671258931023e-01 -2.4768092119120363e-01 -2.5708528599622560e-01  -1.0080424848883078e-01 4.6939113121919111e-02 -2.5780819405647587e-01  1.5067913537205077e-01 2.7186576118959957e-02 -1.3259144066475759e-01  -5.2442839038636981e-02 9.7508651998155157e-02 -2.4388939275311897e-01  1.0369725686187618e-01 -2.5136830936542276e-01 -1.3920682145439800e-01  2.1882832218495815e-01 2.0632753874616361e-01 -2.6977474898102854e-02  1.6792063100401150e-01 3.1646913070399268e-01 -6.2506164110642720e-02  2.0402040520610043e-01 2.6298820968383729e-01 -1.6824034007381805e-02  1.5016489796547805e-01 3.0048614869720736e-01 -8.6155781470929463e-02  2.5026258713697558e-01 6.4820341536469345e-02 -4.8401088746720777e-02  5.3433091198330451e-02 3.8094809076232911e-01 -5.9517989551687668e-02  -5.1786977100915267e-02 3.4750678390892929e-02 -2.4868730444102996e-01  -8.7469866547894889e-02 -8.4888159190845448e-03 -2.7743741753687712e-01  -1.6517155928853056e-02 2.8861145675948843e-02 -2.1950730684037048e-01  7.9670499550400314e-02 -8.4966507614023468e-02 -1.8498249632351618e-01  7.0596325262482745e-02 -1.4562849274425960e-01 -1.9134400750189892e-01  3.0228734604457276e-02 -1.3174121958101162e-01 -2.1947378956576158e-01  2.3246192314108988e-01 1.1553051559721095e-01 -1.2408205784221273e-02  1.6172983458852866e-01 -8.2656974509917200e-02 -1.2702809040190768e-01  1.2354453126420724e-01 2.6470706851724113e-01 -1.2683470996553245e-01  -1.9691170684800025e-01 2.8509474126757455e-02 -1.8481360148654283e-01  9.3087286717343579e-02 -1.8652629158595144e-01 -1.7818766827962679e-01  1.3087422309342497e-01 -5.2243904213267127e-02 -1.4481883686753316e-01  7.1042729397164679e-03 2.4636157608096923e-01 -1.6469397893449572e-01  6.5978692863107480e-02 -1.9968960382986352e-02 -1.8379678366636173e-01  2.5472790173527597e-02 3.0330337328280180e-02 -1.9187756754710417e-01  7.7958318723658673e-02 3.7909273514207788e-02 -1.6049081041219040e-01  1.0894943596754424e-01 4.6831687042488995e-02 -1.5000245497738074e-01  7.4092038817332950e-02 8.4793327105480917e-02 -1.7224599048560835e-01  2.9564214510893201e-02 1.0121939531728802e-01 -1.9784077666481339e-01  -1.3611050088438898e-02 9.5697468990341622e-02 -2.2472108790573614e-01  1.1799333629373220e-01 -1.2347626307122232e-01 -1.5787786019017430e-01  1.0520729538257900e-01 -9.1383137108728852e-03 -1.5405907134789046e-01  7.7699351466162372e-02 1.1148768089735076e-03 -1.7840443038554948e-01  8.1733677596301929e-02 1.7948801145323066e-02 -1.5790640396435221e-01  7.8580268641695830e-02 -1.2923712648854517e-02 -1.8419942823791741e-01  1.3452779083781558e-01 2.2278581440209386e-01 -3.7533491501558214e-02  1.5389915340369095e-01 1.4912295672664994e-01 -3.3120245739576636e-02  1.3594308227537191e-01 1.9703201831273148e-01 -5.0762694316696548e-02  1.0878305712811549e-01 2.3805256354375304e-01 -5.7239082595686192e-02  8.3692609233829651e-02 2.7372317378445848e-01 -5.0325764149762600e-02  8.1904425656442251e-02 6.0566996240210298e-03 -1.6576359796361956e-01  1.3871060966574728e-01 -1.4156972881644664e-01 -4.3737329920578494e-02  1.4948011189226418e-01 -1.0370748729044428e-01 -2.4837349505693881e-02  1.2557162301168029e-01 -1.7858947502028810e-01 -2.8848943187919487e-02  -2.1488753026283500e-01 -8.0711628105872776e-02 -4.9622475093545303e-02  -2.1340298396973792e-01 -1.4497336958385193e-01 -4.5816577545634368e-02  -5.7947264539747675e-02 -3.0518971412449281e-01 -5.48