<?xml version="1.0"?>
<VTKFile type="UnstructuredGrid"  version="0.1"  >
<UnstructuredGrid>
<Piece  NumberOfPoints="644" NumberOfCells="1925">
<Points>
<DataArray  type="Float64"  NumberOfComponents="3"  format="ascii">0.3524492474756565 2.719013653126271 -1.308675947203501e-15  0.5816703538404783 3.107082063764139 -1.295858530401857e-15  -0.3133049152942293 2.765506858552003 -1.316944762081861e-15  -0.8978235904828957 2.486466283151052 -1.308953274910512e-15  -1.279235537911375 1.95180953493392 -1.304260463654151e-15  -1.485123992401627 1.316273098723683 -8.693177561003377e-16  -1.523682191930587 0.6477348162937633 -4.227430975058176e-16  -1.433263602202803 -0.001593211593168241 -4.264929990244581e-16  -1.147979750606543 -0.5642325505459496 1.225440185806934e-17  -0.6546151371052583 -0.9476630010792095 -1.297826137074524e-17  -0.04889689384468371 -1.119450009037343 -1.133137206695195e-17  0.5943546331574985 -1.105730817696907 2.953520124978202e-17  1.215912434568344 -0.9183744881463818 -5.04034643875101e-18  1.768849708882516 -0.5819524394990477 2.792917350391299e-18  2.153646271097363 -0.05948262107167851 -4.402135880593885e-16  2.376929503442628 0.5493218968388265 -4.442927656976173e-16  2.357989726587733 1.202715143994637 -8.81295559610517e-16  2.096521276354776 1.795828358773631 -8.93739615550683e-16  1.616188035867727 2.245865128473768 -1.284022073700824e-15  1.013084751943613 2.545632241478868 -1.320975790574239e-15  -0.1159922292458032 3.196403912928625 -1.297126278740994e-15  -0.8178234700487337 3.091089161287739 -1.298702214866521e-15  -1.44120099787197 2.744209865721583 -1.280803980428004e-15  -1.944222035297093 2.234509759653187 -1.337378904897386e-15  -2.292961308666417 1.610622935314272 -8.550225750117298e-16  -2.491438611102248 0.9228652578965049 -8.406990978250904e-16  -2.511045253713529 0.2072249174157149 -3.370765036041369e-16  -2.359704249810815 -0.4846230032628466 -4.09268657491506e-16  -2.055140065479492 -1.127138933270171 2.572678188120543e-17  -1.605233856279572 -1.670121318811238 1.486697542843537e-18  -1.012750419027289 -2.059525453244286 -3.134840117835395e-17  -0.3394737521833263 -2.279072973594516 -4.242867000982767e-20  0.36444905266094 -2.317612558127447 1.190866073464286e-18  1.060705524686999 -2.178435642011572 1.901300492481183e-17  1.714183465921795 -1.912171675343067 1.767975614936119e-17  2.285889289620383 -1.488135398024945 2.212348863942754e-17  2.747140934419847 -0.9388670549137668 5.89980167107325e-18  3.077515807709153 -0.3024454470993843 -4.172289447079126e-16  3.257152294343902 0.4005695798941963 -4.433615749326258e-16  3.251404212082579 1.128062884240643 -8.587246541864236e-16  3.048893196690175 1.837304238554452 -8.53152462036633e-16  2.608196556501223 2.431713369737002 -1.364069559295529e-15  1.986648200506411 2.828372940149116 -1.267515702619799e-15  1.287641729856802 3.035025486253144 -1.283428687514958e-15  -1.868544915817392 0.07114553020600611 -0.5150202782292522  -2.245963103586272 -0.2690588857962292 -1.115445523524643  -1.894438028199366 -0.6756879006381199 -0.7546092979601308  -1.927406832731484 1.221586464359023 -3.035640299607383  -1.525014963477344 1.638129979646814 -2.44293520709292  -1.399394224511789 1.561233860839573 -3.228676074627893  2.450212529417025 1.308517217286314 -1.634228549783861  2.355425752472296 0.8607745446324548 -2.407143178327681  2.115688666797737 1.450929986331776 -2.21015489196133  -1.564376967064124 -0.4316080320413799 -0.3183095569988829  -0.8877944322214938 1.86535792934836 -2.7350864650037  -0.7225981046547956 1.741545139113841 -3.408518163448622  -2.472910664170205 -0.3560537648682559 -1.802982512218788  -2.367734050218146 0.2592936050086341 -1.469280770908855  -2.477618607967105 0.2697803011977986 -1.997961192072964  -1.368389601770006 1.064049507268777 -4.502208247998229  -1.310228528441763 1.418037394940096 -3.880030817894729  -0.8201446637509996 1.478426225886099 -4.227910921408458  1.506862823747393 1.75216395300728 -2.485444799526411  1.911407335641507 1.190036568725985 -2.853778979412784  2.004455786180123 1.846770902008941 -1.752357119433315  2.158689936157292 0.6002963951681812 -3.227375100518363  1.906516233939405 0.8129982412842438 -3.798471072656196  0.3926061399774258 2.777600038129377 -0.8585018492931253  -0.07417647035601915 2.838395541056623 -0.5463160812421003  -1.426042854381803 -1.815929684510454 -1.599207231064461  -1.245083956164822 -1.731290378642475 -1.09997563949077  -1.717717160937398 -1.300401942795548 -1.008992713314312  -0.2626568600218147 -1.492407571425152 -0.4460499689908786  -0.2354524623314483 -1.942109106102594 -1.00573625655791  0.3905011220067968 -1.65696683682449 -0.6751123342201433  -2.171543066752489 -0.9095491879129602 -1.282064929029566  -1.160296608353556 -1.336948142969337 -0.6065450272814124  1.220156783367387 1.465546016146518 -3.282287217549689  0.7689996014619883 1.886707650646615 -2.727053037780702  2.062893331095849 -1.770839382612756 -4.22166353602584  2.116749911070408 -1.616253125360408 -3.484723854019458  1.839779535652484 -2.095729347530818 -3.613393362407036  2.59292491045726 0.4289966071601365 -0.9403989248025617  2.532192421607829 1.082953775951412 -0.7694933423509727  1.17792012626116 -1.429646170258454 -0.7209267047115349  1.486569151335843 0.9415813491520647 -5.000380684852474  1.571499325644376 0.6136691503513828 -5.787285566488732  0.8606851133594402 1.003147180314627 -5.53553352229148  2.530105791537134 -0.3498969106136083 -2.260207880099714  2.361787986801331 -0.8588713822373663 -2.827540178246794  2.330578237011266 -0.441868528233145 -3.146681255049967  1.92310029207737 -1.896054239149872 -2.714012554999192  -0.2456285637782522 2.667831245446821 -1.166902348378924  -0.9941689401710601 2.524776915177758 -0.9474615716573234  -0.5188885324404411 2.77984415292527 -0.5656970834872227  1.439792170684131 -2.203604348537236 -2.292303195402712  1.830763503781728 -1.830076019447687 -1.927573063318457  1.374069038003459 -1.886042873664715 -1.498065847419972  -0.746023795979283 -1.645478047388035 -0.7314075706237141  -0.3238605659189331 1.980730393854359 -2.664066797811744  0.4389918503917797 -2.642762806740515 -3.737936542405779  0.3102430046557167 -2.580746480972274 -2.909298061899758  -0.2454551371310597 -2.460865752703922 -3.322664510438417  1.01916540755085 2.552250085623101 -1.287827786947975  1.758146995342369 2.242711403787885 -1.207639300223298  1.373240038991333 2.193561853504773 -1.879635994173765  0.8615319517922181 -2.613068216927863 -3.293269586889555  2.403837648660114 0.0192514852572067 -0.5528317756938047  -2.059919433470339 1.154356775773679 -2.351244741135246  -2.302800057950897 0.7054987039135211 -3.098167083353185  -1.815547655486924 0.7647050340118375 -0.4541697708737329  -2.143665573386345 0.5019327043945495 -0.9642103080895182  -0.816335520173832 -2.072406870741923 -1.480501289885595  -1.886002825200458 1.042371542319409 -3.793691158159074  0.3358909822915694 2.592998442992605 -1.430739354962785  1.989506206493704 2.046047572555488 -0.5647305104514205  2.329349592933168 1.505103586076393 -0.3938072083262301  2.316997173529651 1.671284928878451 -1.003602150413423  0.3760486337128732 -2.427032914366892 -2.144869520931616  0.8984639817534997 -2.486262339273779 -2.575186943193251  0.923284145413917 1.244475402984346 -4.751145935420232  1.263159509191692 1.235597974427688 -4.189701805719859  -0.1071010478263998 2.302272560445762 -1.902216931487894  0.6544001956202263 2.287640452424346 -1.997617244784125  -1.828774645364251 -1.395920027555074 -3.121036928711876  -1.482594985320346 -1.609018786488751 -3.581202488733092  -1.379617415383756 -1.856317186112614 -2.811949915087366  0.1893799488017139 2.088231476371118 -2.419328086733413  2.161522122725784 -0.6040786590338521 -0.7389593759550857  1.740878143579619 -0.9881703788355898 -0.6297839365976597  -1.136466277361503 1.940901394005059 -2.094619285623389  -1.689931495431491 1.663274243776722 -1.801343136383149  -1.24596142717301 2.152695011528615 -1.530759415349907  -1.530220766056248 2.048200275476062 -1.144000993171109  2.557918290826184 -0.1999834749153915 -1.325716626565216  2.425621771398122 -0.8918187345807487 -1.68288375717585  -1.37116496166625 -0.9289914018457714 -0.431177274838748  0.3492763209567468 -2.128533371860865 -1.374691616291397  -0.2905919163244494 -2.279844006852957 -1.750470429372715  2.621828629408236 0.7475181246115896 -1.638064963851411  -0.7260697382344855 2.351865992074989 -1.608947539562074  -1.681212394334312 1.728804898805702 -0.6495799607152581  -1.377754477416854 2.199717802386958 -0.5776782037668647  0.9193664298538571 -1.868866762062339 -1.181312480316472  0.8698694674768574 -2.259306358907425 -1.859056083820217  2.532880517059991 0.3448006589460187 -2.258904848027631  -1.937188998967668 1.18020581641698 -0.8222963378119704  1.874142601395805 -1.359257183604358 -1.25216498714699  -2.236009985621899 -0.9621636447768851 -2.861849847111966  -2.321807664392159 -0.8856478384538364 -2.149078546195562  -2.529785330468161 -0.2536561998447466 -2.628529502112255  1.46099144759648 2.444299559965542 -0.6407429029049851  -2.164799030506693 1.031381127201914 -1.58602631942449  -2.413484943033401 0.5382328740713798 -2.432392502681989  -1.854520603184718 1.595385533518968 -1.252103006489362  0.07731779665390147 1.842071399533892 -3.154166487286673  -1.960538594680758 -1.374818475739283 -1.722695219150221  -2.373580138540216 -0.5577723104902833 -3.292961800202774  -2.466821587476529 -0.01283551324864868 -3.327429289645389  -2.294594734336227 -0.4406327939659477 -3.902596403368646  2.205109958570968 -1.43379509012065 -2.112690678708507  1.071259960473606 0.523919075445203 -6.283010001198699  1.686074768746975 -2.129752326792207 -5.157235939858815  1.241880521970067 -2.40729842457149 -4.749399800927733  1.290892959962802 -2.286869920276881 -5.413986197901741  2.294701771747094 -0.5288773634890976 -3.992942294864007  2.250953336772068 0.01282535272240912 -3.493796011714831  1.083991438620654 
[...]
<PointData  Vectors="f_832374-0"> 
<DataArray  type="Float64"  Name="f_832374-0"  NumberOfComponents="3" format="ascii">7.3735488976579888e-02 5.7113268945654250e-01 0.0000000000000000e+00  5.7810439654401177e-02 4.8415241523046848e-01 0.0000000000000000e+00  -5.7150854791787227e-02 5.2160591008545898e-01 0.0000000000000000e+00  -1.9600989242748373e-01 4.5828171989295491e-01 0.0000000000000000e+00  -3.2839291928553560e-01 3.7213846811028295e-01 0.0000000000000000e+00  -4.3134594017360195e-01 2.6020914153211655e-01 0.0000000000000000e+00  -4.7714733123484931e-01 1.2687707492551567e-01 0.0000000000000000e+00  -4.6652027000548335e-01 -2.2120313761182876e-02 0.0000000000000000e+00  -4.1086896704103298e-01 -1.8062005367548073e-01 0.0000000000000000e+00  -3.0663365061407610e-01 -3.2557794711645144e-01 0.0000000000000000e+00  -1.6460557571589801e-01 -4.2913160936198524e-01 0.0000000000000000e+00  -1.0901672610355876e-02 -4.6043633657944966e-01 0.0000000000000000e+00  1.3664755065031003e-01 -4.2863978203157449e-01 0.0000000000000000e+00  2.5979679366884334e-01 -3.3743339647349457e-01 0.0000000000000000e+00  3.4644716929458780e-01 -2.0616784676890262e-01 0.0000000000000000e+00  3.8282022713616043e-01 -4.9560274681504722e-02 0.0000000000000000e+00  3.7365248831383369e-01 1.0976877649425278e-01 0.0000000000000000e+00  3.3433107741738105e-01 2.6635066132448215e-01 0.0000000000000000e+00  2.7011820259882258e-01 4.1559945342142962e-01 0.0000000000000000e+00  1.8307972621231283e-01 5.2868133349305746e-01 0.0000000000000000e+00  -5.5720213269734822e-02 4.5111370631869846e-01 0.0000000000000000e+00  -1.3388342308257284e-01 3.7919638321028004e-01 0.0000000000000000e+00  -2.0063809669680382e-01 3.2052755374872099e-01 0.0000000000000000e+00  -2.5841021528044750e-01 2.6439660067110388e-01 0.0000000000000000e+00  -3.2238208719242051e-01 2.0153132286585099e-01 0.0000000000000000e+00  -3.5596677753436912e-01 1.2120851184981210e-01 0.0000000000000000e+00  -3.7261416768722694e-01 3.2863558357619629e-02 0.0000000000000000e+00  -3.6178532466639740e-01 -6.2592451599309790e-02 0.0000000000000000e+00  -3.2792543941206043e-01 -1.4567784959144464e-01 0.0000000000000000e+00  -2.7275147833457980e-01 -2.2261212301666225e-01 0.0000000000000000e+00  -2.0989163858842139e-01 -2.8982801155785909e-01 0.0000000000000000e+00  -1.2921811166205624e-01 -3.3861145562276612e-01 0.0000000000000000e+00  -3.4800718019772317e-02 -3.5478573136858704e-01 0.0000000000000000e+00  5.4128661333422312e-02 -3.4456704926249421e-01 0.0000000000000000e+00  1.3750927035270144e-01 -2.9396951452736725e-01 0.0000000000000000e+00  1.9906224172992434e-01 -2.2655733003475115e-01 0.0000000000000000e+00  2.3792531872690278e-01 -1.4813034638382108e-01 0.0000000000000000e+00  2.5221322688651021e-01 -5.8867978837081704e-02 0.0000000000000000e+00  2.4789827895422384e-01 2.2156744042575192e-02 0.0000000000000000e+00  2.2922141875566782e-01 9.6865466959887625e-02 0.0000000000000000e+00  2.1149564789952524e-01 1.5564910671063908e-01 0.0000000000000000e+00  2.0567894196010481e-01 2.1877844932140386e-01 0.0000000000000000e+00  1.9553286497405475e-01 3.1188174907388788e-01 0.0000000000000000e+00  1.5054566602306674e-01 4.1775440175706890e-01 0.0000000000000000e+00  -4.7194595992176602e-01 1.8457300006025881e-03 3.2145766559218372e-02  -4.2467446698746469e-01 -2.7894109567068566e-02 -3.0074342378640817e-02  -4.2201607244922379e-01 -1.2965395696712684e-01 2.2334308429961720e-02  -2.8521169892661263e-01 2.6025380862900588e-01 -2.6129339783980937e-01  -2.5122420869884454e-01 3.5871830907491936e-01 -2.2721024786388988e-01  -2.1846891724371928e-01 3.5919038252720359e-01 -2.9292022381743854e-01  3.3570490082221277e-01 2.1545171453592055e-01 -1.3381645630940722e-01  3.6897394073453443e-01 1.9874076765260543e-01 -2.0773363539739706e-01  3.0468855326004357e-01 3.0225854344548675e-01 -2.1214716804564651e-01  -4.4632148844998148e-01 -1.2129297340296055e-01 3.2879461125400113e-02  -1.5700707233015310e-01 4.5062392893610331e-01 -2.7279396380312076e-01  -1.2162207481839410e-01 4.4566884417086278e-01 -3.2441745442738323e-01  -3.9409829801398139e-01 -3.9650744530987977e-02 -1.2274196962212476e-01  -4.0316851735661174e-01 7.3237263262148980e-02 -8.1614562823700970e-02  -3.7999026297070432e-01 7.3098682804922627e-02 -1.4705050979600839e-01  -2.2173945955124813e-01 2.3760877767092370e-01 -3.9499148512854065e-01  -2.0434708266301954e-01 3.2779189634923317e-01 -3.4791731383627317e-01  -1.4073397337376392e-01 3.6963347176127148e-01 -3.8366175118263762e-01  2.2509368654341441e-01 4.1980243775503417e-01 -2.6905194212946887e-01  3.1283019015911234e-01 3.2116162953978611e-01 -2.6655733959892580e-01  2.7095439189378046e-01 3.4237627786988928e-01 -1.7068980630571701e-01  3.8569149179958284e-01 2.0925295701368318e-01 -2.5490715980699952e-01  3.3504152401127280e-01 2.8548756340422843e-01 -2.9084309983116391e-01  4.7268282064168436e-02 5.2542782413311184e-01 -9.5398061006136681e-02  -2.3417068316228341e-02 5.1652781516400537e-01 -5.6123524326909639e-02  -3.0823637924927200e-01 -3.5054364573029367e-01 -7.5544986062043878e-02  -2.9595134133737122e-01 -3.4869156668900231e-01 -1.1296892337089652e-02  -3.6448592865216684e-01 -2.4642278929967662e-01 -8.2293716228765013e-03  -1.7146257060592363e-01 -4.4363841975004714e-01 4.7558625030333174e-02  -1.3740352493002467e-01 -4.5485091025820434e-01 2.2069048843504201e-02  -2.1488146773521538e-02 -4.7820225856466403e-01 4.6526204471187327e-02  -3.9321272242483607e-01 -1.4321905298018880e-01 -5.6709664485175219e-02  -3.2895569258288271e-01 -3.2282441192765332e-01 4.4281433170172330e-02  2.0929230912479788e-01 4.4304221484166201e-01 -3.1773207332372866e-01  1.1484206746509644e-01 5.0314055363618582e-01 -3.0355775665175516e-01  3.3117409034516243e-01 -2.1846981496835238e-01 -2.4546932852007203e-01  3.5851775657744878e-01 -2.0566245499353542e-01 -2.0546684146608737e-01  2.6811848559648627e-01 -2.8151773296144916e-01 -2.1188457385988835e-01  3.8580740839645700e-01 -3.8151705103945332e-04 -3.9839749671039204e-02  3.6467618649234373e-01 1.2323110514080494e-01 -3.9257847029477516e-02  1.4101131552712223e-01 -4.3891138094895510e-01 3.7834566513337831e-02  2.1490741882581246e-01 3.3227145739032371e-01 -3.8457699347795149e-01  1.8639685661962108e-01 2.6089644004065299e-01 -4.3016947784520182e-01  8.6123911286504692e-02 3.2644092728842394e-01 -4.4935314288087691e-01  4.1975685185642836e-01 -4.3765102003938773e-02 -1.5213586835852136e-01  4.2675230178071155e-01 -9.9685860303863810e-02 -1.8464369188256413e-01  4.5292824609078458e-01 -4.2061415191851853e-03 -2.1426483446376812e-01  2.7533367780527629e-01 -2.8819188291763137e-01 -1.5065810547805034e-01  -6.2276851721379672e-02 5.0113169797496671e-01 -1.4065428289063223e-01  -1.8031588361727507e-01 4.1870978466010844e-01 -9.6428657696985789e-02  -1.0499996595275117e-01 4.7371274863297680e-01 -5.7023526409444074e-02  1.6077765664965737e-01 -3.7917891096793754e-01 -1.0607902958509900e-01  2.3122209380784062e-01 -3.3130535284039847e-01 -8.0077227676813231e-02  1.5428162849204510e-01 -4.0533487520788763e-01 -2.1973155778398760e-02  -2.4002481896333783e-01 -4.0053308171168145e-01 3.9406447322747118e-02  -6.9763953770815554e-02 5.0534732626916479e-01 -2.8854340822180946e-01  -1.9794127014099355e-02 -4.4277394791960140e-01 -2.3888747774678645e-01  -4.9505716794612638e-02 -4.6202543609595542e-01 -1.6573869287439419e-01  -1.5423834797644095e-01 -4.8013131908284579e-01 -2.1843440744296289e-01  1.3295837515653447e-01 4.9279461092328386e-01 -1.4592015047854440e-01  2.3480789005408159e-01 3.9475103740714812e-01 -1.1688825770835895e-01  1.8296766409237375e-01 4.4934941317902510e-01 -2.1125680907002056e-01  5.6983302045926998e-02 -4.1534239933774847e-01 -1.9348772458715419e-01  3.7814132353237190e-01 -1.2428153830296829e-01 -2.3157611414951159e-03  -3.1904447500706062e-01 2.4557518432394923e-01 -1.9452458379501480e-01  -3.2520305353495904e-01 1.4227336840531288e-01 -2.5784019469542779e-01  -4.6959037594730763e-01 1.3530657760331180e-01 1.3662243946040924e-02  -4.3406715431962334e-01 1.0113387907627593e-01 -2.1894782621574724e-02  -2.2348834265609649e-01 -4.2082355170416158e-01 -4.3883552691132338e-02  -2.6973799300356283e-01 2.1125843495996133e-01 -3.2727947177198030e-01  2.5706758470692689e-02 5.2151390475628923e-01 -1.7620134777773575e-01  2.8917438818409991e-01 3.4127206078575983e-01 -3.8395673232219568e-02  3.4897833414462487e-01 2.0660454545442203e-01 -1.4521829785981316e-02  3.1768525756906424e-01 2.5482215250971646e-01 -7.4441696355178971e-02  -3.4168844094386766e-02 -4.6338091627713895e-01 -9.0249256832097002e-02  5.8371440379619909e-02 -4.2649238568634529e-01 -1.2950490385839344e-01  1.3190131810644912e-01 4.0143855189243854e-01 -3.9739989243649326e-01  2.0961287066265755e-01 4.0444440096472689e-01 -3.4981716572846683e-01  -4.6177064816775130e-02 5.1965600019442015e-01 -2.3696604052868617e-01  7.4781537663887621e-02 5.1615197019156933e-01 -2.4489856448139116e-01  -3.7125162674858264e-01 -3.2919735429582531e-01 -2.5521176864856315e-01  -3.4724507883928768e-01 -3.8722698304665870e-01 -2.8924913474353514e-01  -3.2598706152500839e-01 -4.1077237348954826e-01 -2.1119966835825246e-01  9.8436561177766297e-03 5.2660777735996134e-01 -2.8442081366964278e-01  3.3629411231000583e-01 -2.4740030201723393e-01 5.3127385951153511e-03  2.6034413022278607e-01 -3.5483571078338838e-01 2.2219843819937635e-02  -2.0328829581058927e-01 4.2051685430235469e-01 -2.2003738899072800e-01  -2.8562101351525038e-01 3.2515245303421264e-01 -1.6406676404671025e-01  -2.1874121851098374e-01 3.9391859004414087e-01 -1.5864905594814954e-01  -2.7169552146531484e-01 3.4352282633546727e-01 -1.0120952099376687e-01  3.8582291139067143e-01 -9.4288818471575567e-02 -5.8288319719071932e-02  3.5215369203040203e-01 -1.8223199757306072e-01 -7.8925068241244525e-02  -3.9217408052637132e-01 -2.4009028098017896e-01 4.5801825049256839e-02  -2.9903668370713350e-02 -4.6940394297800808e-01 -7.4465086869552593e-03  -1.4055229230553370e-01 -4.6088135313510348e-01 -6.1380774688211993e-02  3.7534201141958146e-01 1.0892388780469223e-01 -1.1553782194742863e-01  -1.4060609972983013e-01 4.6503214827506179e-01 -1.8780646111181407e-01  -3.5237111438083507e-01 2.9700028857962596e-01 -3.2043950728641087e-02  -2.7415410450400945e-01 3.6714252761718830e-01 -3.8987711432125267e-02  7.9083267059238627e-02 -4.5186341313092349e-01 1.5086229359878167e-02  5.6390813062179822e-02 -4.4246674334276476e-01 -5.6425332190816642e-02  4.0585970329591259e-01 8.4779658867046762e-02 -1.7324488597617355e-01  -4.0588321844920899e-01 2.1056836812925400e-01 -2.6683055480614056e-02  2.5977787685529635e-01 -3.3238933261083753e-01 -1.3618899077162350e-02  -3.8556547608926101e-01 -2.0939949533949004e-01 -2.3274569300633649e-01  -3.9017756967859135e-01 -1.6047352135580983e-01 -1.5987181580123752e-01  -3.7296970503065224e-01 -4.3238305559766162e-02 -2.0963705922241291e-01  2.1421727899230819e-01 4.5297000926362568e-01 -5.6087131688862708e-02  -3.6081967329097431e-01 2.0496476049041656e-01 -1.1211219328316072e-01  -3.5646704629190284e-01 1.1891826883171915e-01 -1.9341697834916699e-01  -3.2824986573846537e-01 2.7759666269548683e-01 -9.6400821897680816e-02  6.5189099372575526e-03 5.0970862842460041e-01 -3.2440067708306125e-01  -3.6749993136420178e-01 -2.5133345818927194e-01 -1.0302140779912627e-01  -3.6781256981444732e-01 -1.2820480132093703e-01 -2.7108800477835332e-01  -3.4544222583964784e-01 -1.2010387846040313e-02 -2.7320397292831849e-01  -3.3502020951478312e-01 -1.0854138467322186e-01 -3.2490569030816308e-01  3.1847885680829219e-01 -2.4428525071191082e-01 -1.0771540797043194e-01  7.5481866701680417e-02 2.2806576011017257e-01 -4.8489529952182941e-01  2.2988807143425743e-01 -2.9182532376499798e-01 -3.0304890921005162e-01  1.4752080100623999e-01 -3.5737806936521632e-01 -2.9466905456106496e-01  1.5485434536084788e-01 -3.3758393745319315e-01 -3.2859750800334125e-01  4.4897356720769854e-01 6.5348155916720493e-03 -2.4005211953645186e-01  4.4023061974443362e-01 9.8775870520214387e-02 -2.4084495588918289e-01  1.4983628662448120e-01 4.8124214619229450e-01 -2.6441037326748884e-01  2.3968945242277045e-01 -2.9630628710727036e-01 -2.6044506695863645e-01  -1.2656419673705704e-01 4.8411615920169565e-01 -2.4677742347623657e-01  -2.4255938241383426e-01 -1.2762291494658290e-01 -4.5019866469744518e-01  -2.3044610608489963e-01 -8.2323604254174974e-03 -4.5248795806228503e-01  -2.0534767213726146e-01 -7.2023756062265423e-02 -4.7858777382535472e-01  -2.6646555060051985e-01 -3.2649269306102610e-02 -4.1686616396815868e-01  -1.5418873524796214e-01 -4.7275996727159025e-01 -1.3701489158641794e-01  -2.4993455326878250e-01 -4.3634610929618872e-01 -1.2848657940080019e-01  -2.3887329610832805e-01 -4.7097825032570489e-01 -2.0212765213896522e-01  -3.7120390130785746e-01 -3.0411907554933049e-01 -1.8793582082539262e-01  -3.2544409615691366e-01 -3.6612613848589692e-01 -1.4494844575835236e-01  4.2828923184730261e-01 -1.0809544282617008e-01 -2.1307869569655211e-01  -5.8572684015084260e-02 4.5273659468950750e-01 -3.6375596094471407e-01  -7.1306399287810920e-02 3.9337383988929298e-01 -4.1081178604943014e-01  1.5516814407063895e-01 1.7993414866854235e-01 -4.6027537847933919e-01  2.3736663307156677e-01 1.8660339526569955e-01 -4.1239442624127770e-01  3.8274135427680145e-01 1.8700541641957483e-01 -2.7497582237951640e-01  -7.0319020854557421e-02 -4.3489872926454198e-01 -3.4595925133022909e-01  -1.3030202381061340e-01 -4.6674359293290668e-01 -2.9020735104681800e-01  -1.8644451860075209e-01 -4.4062438685603150e-01 -3.5278868740842628e-01  1.3134634627920344e-01 5.2402545458113059e-01 -5.6357826387394623e-02  1.2477272877956232e-01 4.5826371062498039e-01 -3.6433879269192188e-01  1.0859605497971846e-01 4.9633038932968898e-01 -3.3291028521126959e-01  2.8530909351895204e-02 4.7043418829696965e-01 -3.7102005727335968e-01  2.3867841210986070e-02 -2.7244239853749180e-01 -4.3949736843538562e-01  -7.0109459019789447e-02 -2.7301440521224318e-01 -4.7103289079213451e-01  -1.6764760512563676e-02 -1.9553334244773499e-01 -4.8526668090435171e-01  -8.4197474678747983e-02 3.0708606036185110e-01 -4.5334369221427673e-01  -1.5687372947645564e-02 3.0642269280947115e-01 -4.6659718024823188e-01  -8.6910717506040819e-02 2.0424565746572759e-01 -4.9562001070916945e-01  3.7293520640024724e-01 -1.8818403949588963e-01 -1.6901206297477425e-01  2.5275222506029718e-02 3.9736658830663257e-01 -4.1940749859022081e-01  -2.3516078731043485e-01 -4.6421535894492016e-01 -2.8700098279513592e-01  3.1364388176384544e-01 2.5700660302909611e-01 -3.2424012696752313e-01  2.7625133740241525e-01 2.2292374852135213e-01 -3.7289182232780022e-01  2.7900484509564738e-01 3.3143837888108429e-01 -3.2726165832292065e-01  -1.5850580192582955e-01 2.7740938492041262e-01 -4.3288605606352931e-01  -3.0504160663554736e-01 -7.1349430803579389e-02 -3.7846867376188237e-01  -3.0586960716482564e-01 5.2234853590284701e-02 -3.2350859935958831e-01  -2.7650318907107035e-01 8.1979724923952960e-02 -3.8852177801782367e-01  3.9453963679167431e-01 -1.4772603430682260e-01 -2.3754759302763298e-01  3.9714304728727673e-01 1.3709028228775323e-02 -1.1026513931643635e-01  2.7653978661549594e-01 3.6982641932688243e-01 -3.1182956552600399e-01  3.5886737735925583e-01 1.5089050810455401e-01 -3.1445146256744633e-01  3.8952194543658242e-01 -1.5020894161084217e-01 -1.4272117674340157e-01  -3.6566393775723760e-01 -2.6040951913171961e-01 -3.0595504180878563e-01  3.4366411455670814e-01 -8.4770560965055711e-02 -3.2651344644046942e-01  2.9033377865089077e-01 -2.0873221117769528e-01 -3.1542252971228274e-01  2.6071356779000732e-01 -1.3100582035081473e-01 -3.7202778045916984e-01  -4.2214444170740377e-02 1.4383798862152827e-01 -5.1581621376989129e-01  -1.3705649307900430e-01 7.8954419738856016e-02 -5.1288090538267439e-01  1.7572888129777015e-01 -3.5435657059425524e-01 -1.7084628087013262e-01  -9.5798195651892362e-02 -6.0264198441603240e-03 -5.2452294644663111e-01  -2.4378206356914919e-01 -2.4739335572281890e-01 -4.4238398413584240e-01  -1.8486539968891555e-01 -1.8063920350542420e-01 -4.8660734585702392e-01  -2.9235633033406422e-01 -1.9061431637854698e-01 -4.0511283640624385e-01  -3.5355723168073316e-01 5.1769485341727040e-02 -2.3437575173496838e-01  3.6727566260245997e-01 -1.3824278305445936e-01 -2.7783242761154292e-01  3.0065116020414479e-01 -2.3313492008084788e-01 -2.8008383193058467e-01  -3.0438502028402631e-01 -4.2059797542351418e-01 -3.1245360875108802e-01  -3.0590732070719789e-01 -4.4261913189420121e-01 -2.5687916459221838e-01  -1.2191663487081884e-01 -1.9947464060189909e-01 -4.9999348531706461e-01  -3.3653423781151931e-01 -2.1127493621042714e-01 -3.5750760637920898e-01  -2.2782966499668003e-01 1.2005343437031067e-01 -4.3800921949722965e-01  -2.4427851974979049e-02 -8.4727719369271384e-02 -5.0293440062174588e-01  -3.3430295359563628e-02 2.8559707319372990e-02 -5.1081720723179558e-01  5.1357528569372403e-02 2.0928489572427326e-02 -4.7827850220615764e-01  1.0727348549844223e-01 -3.8297426576945953e-01 -2.5360888775732554e-01  1.2635055242917972e-01 8.5303203879858999e-02 -4.6771707979185617e-01  1.8759844417528576e-01 3.4920385122377815e-03 -4.2414869695802515e-01  3.9460948371223126e-01 1.6256866877184764e-02 -2.9566695653619274e-01  4.1628501358445597e-01 9.6647132112248693e-02 -2.6900196975278340e-01  6.0817692188172697e-03 2.5345671733572689e-01 -4.8878278504919526e-01  2.0709622225004695e-01 -2.6476191827453566e-01 -3.4628804033107891e-01  4.2815402350716358e-01 9.8918574528638864e-02 -2.1968477671796952e-01  4.2302929875389839e-01 -7.2945261876457723e-02 -2.4871868391317428e-01  -1.9264334897053545e-01 3.6136516611158125e-02 -4.8072629168492009e-01  4.7078912550393558e-02 1.2657259512525357e-01 -4.9888968465227634e-01  6.5112774510425797e-02 -3.8974459632532699e-01 -3.3278601462263346e-01  -1.5547502465568774e-01 1.7924735442290249e-01 -4.7297231271435175e-01  -3.2068066425625491e-01 -3.3699746835048738e-01 -3.5794260591411475e-01  -2.6295039356579702e-01 -4.1834082034731229e-01 -3.4869684939364265e-01  2.4758241240000808e-02 -4.1901562348746285e-01 -2.9666020955037514e-01  -1.5062314676210853e-01 -3.8995050437142964e-01 -4.1057876130486742e-01  -2.4212844097263195e-02 -3.9667610655338420e-01 -3.7916261750843550e-01  -5.4837786943194515e-02 -3.4867715523425630e-01 -4.2734299454142466e-01  1.7444638674478777e-01 -3.4316130173785064e-01 -2.2091948608183357e-01  1.1905090263905263e-01 -5.4286505595406230e-02 -4.3463676178781074e-01  1.7570729630641374e-01 -9.9389956576629926e-02 -4.0772306841235584e-01  1.0553856246133418e-01 -1.7380367035807615e-01 -4.3429173425333700e-01  8.2265938206964442e-02 -3.3954104649936695e-01 -3.7154126762257617e-01  -2.4128720161648692e-01 -3.6309206225709573e-01 -4.0438121877783734e-01  -1.6186656006976186e-01 -3.0471595676840196e-01 -4.6103574733207220e-01  -2.8299884527504243e-01 -2.8304926396471647e-01 -4.0362033588726343e-01  3.2022905792637441e-01 1.2193352774142914e-01 -3.5860266429735765e-01  -1.5350022608012401e-01 -7.3636898101892417e-02 -5.1419917973270479e-01  -8.8293207890906014e-02 -1.2432718006625271e-01 -5.1438769715229715e-01  3.2269834755431098e-01 3.0483549143583963e-02 -3.5971502202681682e-01  2.3691905163527996e-01 9.3625713489662241e-02 -4.1772543084677849e-01  5.2163804631498487e-02 -1.1985018052191668e-01 -4.6428185915806808e-01  2.7168608645999304e-01 -1.8559469799127041e-02 -3.8917937887928300e-01  1.8545180427279595e-01 -1.9730175802936309e-01 -3.9287337091528557e-01  1.2755142632929875e-01 -2.5290328782254951e-01 -3.9789002432744408e-01  1.7919979175924233e-01 -1.8531961737292277e-01 -9.1720597244852112e-02  2.2349983114878208e-01 -1.1181360927478751e-01 -1.0032582902284468e-01  2.1389833463585511e-01 -1.3338140948523822e-01 -6.8778974147075539e-02  2.3276418244466032e-01 -5.4232259344898448e-02 -7.4738948171027955e-02  -1.4961078886770418e-01 2.0304126742822293e-01 -1.9687615771425920e-01  -1.4702068874221419e-01 1.9046365830341566e-01 -2.360290353